Nonadiabatic Molecular Dynamics Start:  2026-02-25 10:46:56


  -------------------------------------------------------------------
                              /\
   |\    /|                  /++\
   ||\  /||                 /++++\
   || \/ || ||             /++++++\
   ||    || ||            /PyRAI2MD\
   ||    || ||           /++++++++++\                    __
            ||          /++++++++++++\    |\ |  /\  |\/| | \
            ||__ __    *==============*   | \| /--\ |  | |_/

                          Python Rapid
                     Artificial Intelligence
                  Ab Initio Molecular Dynamics



                      Author @Jingbai Li
                      
                      
    2022 – present   Hoffmann Institute of Advanced Materials
                     Shenzhen Polytechnic, Shenzhen, China    
                                
    2019 – 2022      Department of Chemistry and Chemical Biology
                     Northeastern University, Boston, USA

                          version:   2.5.1

  With contributions from (in alphabetic order):
    Jingbai Li     - Fewest switches surface hopping
                     Zhu-Nakamura surface hopping
                     Velocity Verlet
                     OpenMolcas interface
                     OpenMolcas/Tinker interface
                     BAGEL interface
                     ORCA interface
                     OpenQP interface
                     GFN-xTB interface
                     Adaptive sampling
                     Grid search
                     Multilayer ONIOM (QM:QM' and QM:QM':MM)
                     Periodic boundary condition
                     Wall potential
                     QC/ML hybrid NAMD
                     Excited-State Neural Network Potentials (ESNNP)

    Patrick Reiser - Fully connected neural networks (pyNNsMD)
                     SchNet (pyNNsMD)

  Special acknowledgement to:
    Steven A. Lopez            - Project co-founder
    Pascal Friederich          - Project co-founder




  &control
-------------------------------------------------------
  Title:                      dbh-4     
  NPROCS for ML:              1         
  NPROCS for QC:              1         
  NPROCS for Multiscale:      1          
  Seed:                       1         
  Job: 	                      md        
  QM:          	       	      nequip    
  Ab initio:                  molcas    
-------------------------------------------------------

        
  &molecule
-------------------------------------------------------
  States:                     [2]       
  Spin:                       [0]       
  Interstates:                [[1, 2]]  
  QMMM keyfile:               None      
  QMMM xyzfile:               Input     
  High level region:          []         ...
  Middel level region:        []         ...
  Boundary:                   []         ...
  Embedding charges:          False     
  Reading charge:             False     
  Frozen atoms:               []        
  Constrained atoms:          []        
  Restrained bonds:           []        
  Restrained angles:          []        
  Restrained dihedrals:       []        
  Restrained bond value:      []        
  Restrained angle value:     []        
  Restrained dihedral value:  []        
  Bond potential scale:       10.0      
  Angle potential scale:      0.005     
  Dihedral potential scale:   1e-06     
  External potential shape:   ['ellipsoid']
  External potential radius:  []        
  External potential factor:  [40]      
  External potential scale:   [1.0]       
  Compress potential volume:  []        
  Potential center:           []        
  Potential center type:      xyz       
  Constrained groups          []        
  Track geometry type:        None      
  Track indices:              []        
  Track threshold:            []        
  Track stop task:            0         
  Lattice vectors:            []        
  Lattice constant:           []        
  Periodic boundary condition []        
-------------------------------------------------------

        
  &initial condition
-------------------------------------------------------
  Generate initial condition: 0         
  Number:                     5000      
  Method:                     wigner     
  Format:                     molden    
-------------------------------------------------------

        
  &md
-------------------------------------------------------
  Initial state:              2         
  Initialize random velocity  0         
  Temperature (K):            300       
  Step:                       2000      
  Dt (au):                    20.67     
  Only active state grad      0         
  Surface hopping:            fssh      
  NAC type:                   nac       
  Phase correction            1         
  Population reset            0         
  Substep:                    20        
  Integrate probability       0         
  Decoherence:                0.1       
  Adjust velocity:            2         
  Reflect velocity:           1         
  Maxhop:                     10        
  IC hopping gap threshold    0.5       
  ISC hopping gap threshold   0.5       
  Thermodynamic:              off       
  Thermodynamic delay:        200       
  Print level:                0         
  Direct output:              2000      
  Buffer output:              0         
  Record MD data:             1         
  Record MD steps:            0         
  Checkpoint steps:           1          
  Restart function:           0         
  Additional steps:           0         
-------------------------------------------------------

        
  &md velocity control
-------------------------------------------------------
  Excess kinetic energy       0         
  Scale kinetic energy        1         
  Target kinetic energy       0         
  Gradient descent path       0         
  Reset velocity:             0         
  Reset step:                 0         
-------------------------------------------------------

        
  &nequip
-------------------------------------------------------
  Train data:                 None      
  Prediction data:            None      
  Train mode:                 training  
  Silent mode:                1         
  Data splits:                10        
  NN EG type:                 1         
  NN NAC type:                0         
  NN SOC type:                0         
  Multiscale:                 []        
  Shuffle data:               False     
  EG unit:                    si        
  NAC unit:                   si        
  SOC unit:                   cm-1
  Select EG output:           []        
  Select NAC output:          []        
  Select SOC output:          []          
  Data permutation            No        
  Elements                              
-------------------------------------------------------

        

  NequIP-NAC (Energy + Gradient + NAC)

  &hyperparameters            Energy+Gradient      Nonadiabatic         Spin-orbit
----------------------------------------------------------------------------------------------
  Model type:                 NequIPeg            NequIPnac           n/a          
  Model path:                 dbh-4.nequip.pth     dbh-4.nequip.pth     n/a                 
  GPU:                        1                    1                    n/a                 
  Chemical symbols:           auto                 auto                 n/a                 
----------------------------------------------------------------------------------------------
        


 *---------------------------------------------------*
 |                                                   |
 |          Nonadiabatic Molecular Dynamics          |
 |                                                   |
 *---------------------------------------------------*


  State order:         1   2
  Multiplicity:        1   1

  QMMM key:         None
  QMMM xyz          Input
  Active atoms:     15
  Inactive atoms:   0
  Link atoms:       0
  Highlevel atoms:  15
  Midlevel atoms:   0
  Lowlevel atoms:   0
  
  Lattice vector:   None
  Periodic X/Y/Z:   None

  Iter:        1  Ekin =           0.0556652964381033 au T =   781.23 K dt =         20 CI:   2
  Root chosen for geometry opt   2

  Gnuplot:           0.0000000000000000           1.0000000000000000        -302.9341788557098880        -302.7711906053791608        -302.7711906053791608
  **
  **
  **
  A surface hopping is not allowed
  **
  At state:   2


  &surface hopping information
-------------------------------------------------------
  No surface hopping is performed
-------------------------------------------------------

  
  &error iter 1         
-------------------------------------------------------
  Energy   MaxStDev:          0.0000    
  Gradient MaxStDev:          0.0000    
  Nac      MaxStDev:          0.0000    
  Soc      MaxStDev:          0.0000    
-------------------------------------------------------

  Iter:        2  Ekin =           0.0607005771738088 au T =   851.90 K dt =         20 CI:   2
  Root chosen for geometry opt   2

  Gnuplot:           0.0000000000000000           1.0000000000000000        -302.9391358796070790        -302.7762019215218174        -302.7762019215218174
  **
  **
  **
  A surface hopping is not allowed
  **
  At state:   2


  &surface hopping information
-------------------------------------------------------
  No surface hopping is performed
-------------------------------------------------------

  
  &error iter 2         
-------------------------------------------------------
  Energy   MaxStDev:          0.0000    
  Gradient MaxStDev:          0.0000    
  Nac      MaxStDev:          0.0000    
  Soc      MaxStDev:          0.0000    
-------------------------------------------------------

  Iter:        3  Ekin =           0.0662154886284582 au T =   929.30 K dt =         20 CI:   2
  Root chosen for geometry opt   2

  Gnuplot:           0.0000000000000000           1.0000000000000000        -302.9442212908597298        -302.7817681364182931        -302.7817681364182931
  **
  **
  **
  A surface hopping is not allowed
  **
  At state:   2


  &surface hopping information
-------------------------------------------------------
  No surface hopping is performed
-------------------------------------------------------

  
  &error iter 3         
-------------------------------------------------------
  Energy   MaxStDev:          0.0000    
  Gradient MaxStDev:          0.0000    
  Nac      MaxStDev:          0.0000    
  Soc      MaxStDev:          0.0000    
-------------------------------------------------------

  Iter:        4  Ekin =           0.0713868229167763 au T =  1001.87 K dt =         20 CI:   2
  Root chosen for geometry opt   2

  Gnuplot:           0.0000015987938872           0.9999984012060850        -302.9487577912075267        -302.7870754174484205        -302.7870754174484205
  **
  **
  **
  A surface hopping is not allowed
  **
  At state:   2


  &surface hopping information
-------------------------------------------------------

    Random number:             0.53182757
    Accumulated probability:   0.00000021
    state mult  level   probability 
    1     1     1       0.00000021
    2     1     2       0.00000000

    
-------------------------------------------------------

  
  &error iter 4         
-------------------------------------------------------
  Energy   MaxStDev:          0.0000    
  Gradient MaxStDev:          0.0000    
  Nac      MaxStDev:          0.0000    
  Soc      MaxStDev:          0.0000    
-------------------------------------------------------

  Iter:        5  Ekin =           0.0743437467737636 au T =  1043.37 K dt =         20 CI:   2
  Root chosen for geometry opt   2

  Gnuplot:           0.0000011594744215           0.9999988405255635        -302.9509718254471409        -302.7901785627483946        -302.7901785627483946
  **
  **
  **
  A surface hopping is not allowed
  **
  At state:   2


  &surface hopping information
-------------------------------------------------------

    Random number:             0.50183666
    Accumulated probability:   0.00000024
    state mult  level   probability 
    1     1     1       0.00000024
    2     1     2       0.00000000

    
-------------------------------------------------------

  
  &error iter 5         
-------------------------------------------------------
  Energy   MaxStDev:          0.0000    
  Gradient MaxStDev:          0.0000    
  Nac      MaxStDev:          0.0000    
  Soc      MaxStDev:          0.0000    
-------------------------------------------------------

  Iter:        6  Ekin =           0.0731236650781507 au T =  1026.25 K dt =         20 CI:   2
  Root chosen for geometry opt   2

  Gnuplot:           0.0000016950992593           0.9999983049007142        -302.9488717729192331        -302.7890340568242209        -302.7890340568242209
  **
  **
  **
  A surface hopping is not allowed
  **
  At state:   2


  &surface hopping information
-------------------------------------------------------

    Random number:             0.51042235
    Accumulated probability:   0.00000027
    state mult  level   probability 
    1     1     1       0.00000027
    2     1     2       0.00000000

    
-------------------------------------------------------

  
  &error iter 6         
-------------------------------------------------------
  Energy   MaxStDev:          0.0000    
  Gradient MaxStDev:          0.0000    
  Nac      MaxStDev:          0.0000    
  Soc      MaxStDev:          0.0000    
-------------------------------------------------------

  Iter:        7  Ekin =           0.0670912722890346 au T =   941.59 K dt =         20 CI:   2
  Root chosen for geometry opt   2

  Gnuplot:           0.0000016454862392           0.9999983545137638        -302.9418218306520316        -302.7828982728896676        -302.7828982728896676
  **
  **
  **
  A surface hopping is not allowed
  **
  At state:   2


  &surface hopping information
-------------------------------------------------------

    Random number:             0.69552952
    Accumulated probability:   0.00000024
    state mult  level   probability 
    1     1     1       0.00000024
    2     1     2       0.00000000

    
-------------------------------------------------------

  
  &error iter 7         
-------------------------------------------------------
  Energy   MaxStDev:          0.0000    
  Gradient MaxStDev:          0.0000    
  Nac      MaxStDev:          0.0000    
  Soc      MaxStDev:          0.0000    
-------------------------------------------------------

  Iter:        8  Ekin =           0.0584433495981465 au T =   820.22 K dt =         20 CI:   2
  Root chosen for geometry opt   2

  Gnuplot:           0.0000015884760646           0.9999984115239613        -302.9322502152621155        -302.7739172364209139        -302.7739172364209139
  **
  **
  **
  A surface hopping is not allowed
  **
  At state:   2


  &surface hopping information
-------------------------------------------------------

    Random number:             0.34345600
    Accumulated probability:   0.00000020
    state mult  level   probability 
    1     1     1       0.00000020
    2     1     2       0.00000000

    
-------------------------------------------------------

  
  &error iter 8         
-------------------------------------------------------
  Energy   MaxStDev:          0.0000    
  Gradient MaxStDev:          0.0000    
  Nac      MaxStDev:          0.0000    
  Soc      MaxStDev:          0.0000    
-------------------------------------------------------

  Iter:        9  Ekin =           0.0522038172770569 au T =   732.65 K dt =         20 CI:   2
  Root chosen for geometry opt   2

  Gnuplot:           0.0000016534033603           0.9999983465966125        -302.9254709014474543        -302.7673517730680146        -302.7673517730680146
  **
  **
  **
  A surface hopping is not allowed
  **
  At state:   2


  &surface hopping information
-------------------------------------------------------

    Random number:             0.98834544
    Accumulated probability:   0.00000021
    state mult  level   probability 
    1     1     1       0.00000021
    2     1     2       0.00000000

    
-------------------------------------------------------

  
  &error iter 9         
-------------------------------------------------------
  Energy   MaxStDev:          0.0000    
  Gradient MaxStDev:          0.0000    
  Nac      MaxStDev:          0.0000    
  Soc      MaxStDev:          0.0000    
-------------------------------------------------------

  Iter:       10  Ekin =           0.0530215506046870 au T =   744.13 K dt =         20 CI:   2
  Root chosen for geometry opt   2

  Gnuplot:           0.0000018113782277           0.9999981886218166        -302.9259900360352162        -302.7681502858965246        -302.7681502858965246
  **
  **
  **
  A surface hopping is not allowed
  **
  At state:   2


  &surface hopping information
-------------------------------------------------------

    Random number:             0.54776359
    Accumulated probability:   0.00000024
    state mult  level   probability 
    1     1     1       0.00000024
    2     1     2       0.00000000

    
-------------------------------------------------------

  
  &error iter 10        
-------------------------------------------------------
  Energy   MaxStDev:          0.0000    
  Gradient MaxStDev:          0.0000    
  Nac      MaxStDev:          0.0000    
  Soc      MaxStDev:          0.0000    
-------------------------------------------------------

  Iter:       11  Ekin =           0.0611478791362652 au T =   858.18 K dt =         20 CI:   2
  Root chosen for geometry opt   2

  Gnuplot:           0.0000016472594806           0.9999983527404765        -302.9338363445146456        -302.7766280827214587        -302.7766280827214587
  **
  **
  **
  A surface hopping is not allowed
  **
  At state:   2


  &surface hopping information
-------------------------------------------------------

    Random number:             0.44032788
    Accumulated probability:   0.00000022
    state mult  level   probability 
    1     1     1       0.00000022
    2     1     2       0.00000000

    
-------------------------------------------------------

  
  &error iter 11        
-------------------------------------------------------
  Energy   MaxStDev:          0.0000    
  Gradient MaxStDev:          0.0000    
  Nac      MaxStDev:          0.0000    
  Soc      MaxStDev:          0.0000    
-------------------------------------------------------

  Iter:       12  Ekin =           0.0718138397468995 au T =  1007.87 K dt =         20 CI:   2
  Root chosen for geometry opt   2

  Gnuplot:           0.0000011584491619           0.9999988415507914        -302.9441856773213999        -302.7876947071294467        -302.7876947071294467
  **
  **
  **
  A surface hopping is not allowed
  **
  At state:   2


  &surface hopping information
-------------------------------------------------------

    Random number:             0.42430687
    Accumulated probability:   0.00000015
    state mult  level   probability 
    1     1     1       0.00000015
    2     1     2       0.00000000

    
-------------------------------------------------------

  
  &error iter 12        
-------------------------------------------------------
  Energy   MaxStDev:          0.0000    
  Gradient MaxStDev:          0.0000    
  Nac      MaxStDev:          0.0000    
  Soc      MaxStDev:          0.0000    
-------------------------------------------------------

  Iter:       13  Ekin =           0.0791882228267780 au T =  1111.36 K dt =         20 CI:   2
  Root chosen for geometry opt   2

  Gnuplot:           0.0000007696569434           0.9999992303430645        -302.9512571277384723        -302.7952186154750507        -302.7952186154750507
  **
  **
  **
  A surface hopping is not allowed
  **
  At state:   2


  &surface hopping information
-------------------------------------------------------

    Random number:             0.12175436
    Accumulated probability:   0.00000011
    state mult  level   probability 
    1     1     1       0.00000011
    2     1     2       0.00000000

    
-------------------------------------------------------

  
  &error iter 13        
-------------------------------------------------------
  Energy   MaxStDev:          0.0000    
  Gradient MaxStDev:          0.0000    
  Nac      MaxStDev:          0.0000    
  Soc      MaxStDev:          0.0000    
-------------------------------------------------------

  Iter:       14  Ekin =           0.0803610322797087 au T =  1127.82 K dt =         20 CI:   2
  Root chosen for geometry opt   2

  Gnuplot:           0.0000005890041718           0.9999994109958266        -302.9520888855714134        -302.7963401174754381        -302.7963401174754381
  **
  **
  **
  A surface hopping is not allowed
  **
  At state:   2


  &surface hopping information
-------------------------------------------------------

    Random number:             0.18690374
    Accumulated probability:   0.00000009
    state mult  level   probability 
    1     1     1       0.00000009
    2     1     2       0.00000000

    
-------------------------------------------------------

  
  &error iter 14        
-------------------------------------------------------
  Energy   MaxStDev:          0.0000    
  Gradient MaxStDev:          0.0000    
  Nac      MaxStDev:          0.0000    
  Soc      MaxStDev:          0.0000    
-------------------------------------------------------

  Iter:       15  Ekin =           0.0755799147796958 au T =  1060.72 K dt =         20 CI:   2
  Root chosen for geometry opt   2

  Gnuplot:           0.0000004853324455           0.9999995146675360        -302.9468940696492041        -302.7914112898346275        -302.7914112898346275
  **
  **
  **
  A surface hopping is not allowed
  **
  At state:   2


  &surface hopping information
-------------------------------------------------------

    Random number:             0.62630934
    Accumulated probability:   0.00000007
    state mult  level   probability 
    1     1     1       0.00000007
    2     1     2       0.00000000

    
-------------------------------------------------------

  
  &error iter 15        
-------------------------------------------------------
  Energy   MaxStDev:          0.0000    
  Gradient MaxStDev:          0.0000    
  Nac      MaxStDev:          0.0000    
  Soc      MaxStDev:          0.0000    
-------------------------------------------------------

  Iter:       16  Ekin =           0.0671394413916415 au T =   942.27 K dt =         20 CI:   2
  Root chosen for geometry opt   2

  Gnuplot:           0.0000003713699105           0.9999996286300927        -302.9381431320327351        -302.7827163953487002        -302.7827163953487002
  **
  **
  **
  A surface hopping is not allowed
  **
  At state:   2


  &surface hopping information
-------------------------------------------------------

    Random number:             0.26690581
    Accumulated probability:   0.00000005
    state mult  level   probability 
    1     1     1       0.00000005
    2     1     2       0.00000000

    
-------------------------------------------------------

  
  &error iter 16        
-------------------------------------------------------
  Energy   MaxStDev:          0.0000    
  Gradient MaxStDev:          0.0000    
  Nac      MaxStDev:          0.0000    
  Soc      MaxStDev:          0.0000    
-------------------------------------------------------

  Iter:       17  Ekin =           0.0586276297671740 au T =   822.81 K dt =         20 CI:   2
  Root chosen for geometry opt   2

  Gnuplot:           0.0000002235557078           0.9999997764442980        -302.9295186767157588        -302.7739724262278855        -302.7739724262278855
  **
  **
  **
  A surface hopping is not allowed
  **
  At state:   2


  &surface hopping information
-------------------------------------------------------

    Random number:             0.02619660
    Accumulated probability:   0.00000002
    state mult  level   probability 
    1     1     1       0.00000002
    2     1     2       0.00000000

    
-------------------------------------------------------

  
  &error iter 17        
-------------------------------------------------------
  Energy   MaxStDev:          0.0000    
  Gradient MaxStDev:          0.0000    
  Nac      MaxStDev:          0.0000    
  Soc      MaxStDev:          0.0000    
-------------------------------------------------------

  Iter:       18  Ekin =           0.0532097098841986 au T =   746.77 K dt =         20 CI:   2
  Root chosen for geometry opt   2

  Gnuplot:           0.0000000806852090           0.9999999193147886        -302.9241606481762688        -302.7684891865176837        -302.7684891865176837
  **
  **
  **
  A surface hopping is not allowed
  **
  At state:   2


  &surface hopping information
-------------------------------------------------------

    Random number:             0.59648693
    Accumulated probability:   0.00000000
    state mult  level   probability 
    1     1     1       0.00000000
    2     1     2       0.00000000

    
-------------------------------------------------------

  
  &error iter 18        
-------------------------------------------------------
  Energy   MaxStDev:          0.0000    
  Gradient MaxStDev:          0.0000    
  Nac      MaxStDev:          0.0000    
  Soc      MaxStDev:          0.0000    
-------------------------------------------------------

  Iter:       19  Ekin =           0.0518840400643332 au T =   728.16 K dt =         20 CI:   2
  Root chosen for geometry opt   2

  Gnuplot:           0.0000000063384465           0.9999999936615533        -302.9230063165456954        -302.7672453597047593        -302.7672453597047593
  **
  **
  **
  A surface hopping is not allowed
  **
  At state:   2


  &surface hopping information
-------------------------------------------------------

    Random number:             0.50056142
    Accumulated probability:   0.00000000
    state mult  level   probability 
    1     1     1       0.00000000
    2     1     2       0.00000000

    
-------------------------------------------------------

  
  &error iter 19        
-------------------------------------------------------
  Energy   MaxStDev:          0.0000    
  Gradient MaxStDev:          0.0000    
  Nac      MaxStDev:          0.0000    
  Soc      MaxStDev:          0.0000    
-------------------------------------------------------

  Iter:       20  Ekin =           0.0536202686584215 au T =   752.53 K dt =         20 CI:   2
  Root chosen for geometry opt   2

  Gnuplot:           0.0000000381520545           0.9999999618479443        -302.9248819095631688        -302.7690857233113206        -302.7690857233113206
  **
  **
  **
  A surface hopping is not allowed
  **
  At state:   2


  &surface hopping information
-------------------------------------------------------

    Random number:             0.24221981
    Accumulated probability:   0.00000001
    state mult  level   probability 
    1     1     1       0.00000001
    2     1     2       0.00000000

    
-------------------------------------------------------

  
  &error iter 20        
-------------------------------------------------------
  Energy   MaxStDev:          0.0000    
  Gradient MaxStDev:          0.0000    
  Nac      MaxStDev:          0.0000    
  Soc      MaxStDev:          0.0000    
-------------------------------------------------------

  Iter:       21  Ekin =           0.0569269755418705 au T =   798.94 K dt =         20 CI:   2
  Root chosen for geometry opt   2

  Gnuplot:           0.0000001276178707           0.9999998723821335        -302.9281769732081102        -302.7724273245231643        -302.7724273245231643
  **
  **
  **
  A surface hopping is not allowed
  **
  At state:   2


  &surface hopping information
-------------------------------------------------------

    Random number:             0.36418745
    Accumulated probability:   0.00000002
    state mult  level   probability 
    1     1     1       0.00000002
    2     1     2       0.00000000

    
-------------------------------------------------------

  
  &error iter 21        
-------------------------------------------------------
  Energy   MaxStDev:          0.0000    
  Gradient MaxStDev:          0.0000    
  Nac      MaxStDev:          0.0000    
  Soc      MaxStDev:          0.0000    
-------------------------------------------------------

  Iter:       22  Ekin =           0.0611150480636119 au T =   857.72 K dt =         20 CI:   2
  Root chosen for geometry opt   2

  Gnuplot:           0.0000002196203543           0.9999997803796390        -302.9322438609562482        -302.7765897647665270        -302.7765897647665270
  **
  **
  **
  A surface hopping is not allowed
  **
  At state:   2


  &surface hopping information
-------------------------------------------------------

    Random number:             0.23747823
    Accumulated probability:   0.00000004
    state mult  level   probability 
    1     1     1       0.00000004
    2     1     2       0.00000000

    
-------------------------------------------------------

  
  &error iter 22        
-------------------------------------------------------
  Energy   MaxStDev:          0.0000    
  Gradient MaxStDev:          0.0000    
  Nac      MaxStDev:          0.0000    
  Soc      MaxStDev:          0.0000    
-------------------------------------------------------

  Iter:       23  Ekin =           0.0662723143475121 au T =   930.10 K dt =         20 CI:   2
  Root chosen for geometry opt   2

  Gnuplot:           0.0000003331305523           0.9999996668694564        -302.9372319128551680        -302.7817366903348670        -302.7817366903348670
  **
  **
  **
  A surface hopping is not allowed
  **
  At state:   2


  &surface hopping information
-------------------------------------------------------

    Random number:             0.84575248
    Accumulated probability:   0.00000006
    state mult  level   probability 
    1     1     1       0.00000006
    2     1     2       0.00000000

    
-------------------------------------------------------

  
  &error iter 23        
-------------------------------------------------------
  Energy   MaxStDev:          0.0000    
  Gradient MaxStDev:          0.0000    
  Nac      MaxStDev:          0.0000    
  Soc      MaxStDev:          0.0000    
-------------------------------------------------------

  Iter:       24  Ekin =           0.0722494544692042 au T =  1013.98 K dt =         20 CI:   2
  Root chosen for geometry opt   2

  Gnuplot:           0.0000004990713383           0.9999995009286522        -302.9429693382155051        -302.7878034552563236        -302.7878034552563236
  **
  **
  **
  A surface hopping is not allowed
  **
  At state:   2


  &surface hopping information
-------------------------------------------------------

    Random number:             0.86335337
    Accumulated probability:   0.00000009
    state mult  level   probability 
    1     1     1       0.00000009
    2     1     2       0.00000000

    
-------------------------------------------------------

  
  &error iter 24        
-------------------------------------------------------
  Energy   MaxStDev:          0.0000    
  Gradient MaxStDev:          0.0000    
  Nac      MaxStDev:          0.0000    
  Soc      MaxStDev:          0.0000    
-------------------------------------------------------

  Iter:       25  Ekin =           0.0776574644971172 au T =  1089.88 K dt =         20 CI:   2
  Root chosen for geometry opt   2

  Gnuplot:           0.0000007032592652           0.9999992967407252        -302.9480678480825873        -302.7933913698838637        -302.7933913698838637
  **
  **
  **
  A surface hopping is not allowed
  **
  At state:   2


  &surface hopping information
-------------------------------------------------------

    Random number:             0.44169739
    Accumulated probability:   0.00000013
    state mult  level   probability 
    1     1     1       0.00000013
    2     1     2       0.00000000

    
-------------------------------------------------------

  
  &error iter 25        
-------------------------------------------------------
  Energy   MaxStDev:          0.0000    
  Gradient MaxStDev:          0.0000    
  Nac      MaxStDev:          0.0000    
  Soc      MaxStDev:          0.0000    
-------------------------------------------------------

  Iter:       26  Ekin =           0.0800987763968732 au T =  1124.14 K dt =         20 CI:   2
  Root chosen for geometry opt   2

  Gnuplot:           0.0000009470905049           0.9999990529095157        -302.9501293818290151        -302.7959734705909796        -302.7959734705909796
  **
  **
  **
  A surface hopping is not allowed
  **
  At state:   2


  &surface hopping information
-------------------------------------------------------

    Random number:             0.92455190
    Accumulated probability:   0.00000017
    state mult  level   probability 
    1     1     1       0.00000017
    2     1     2       0.00000000

    
-------------------------------------------------------

  
  &error iter 26        
-------------------------------------------------------
  Energy   MaxStDev:          0.0000    
  Gradient MaxStDev:          0.0000    
  Nac      MaxStDev:          0.0000    
  Soc      MaxStDev:          0.0000    
-------------------------------------------------------

  Iter:       27  Ekin =           0.0775804383997390 au T =  1088.80 K dt =         20 CI:   2
  Root chosen for geometry opt   2

  Gnuplot:           0.0000012816191807           0.9999987183807661        -302.9471286442675932        -302.7935119892335365        -302.7935119892335365
  **
  **
  **
  A surface hopping is not allowed
  **
  At state:   2


  &surface hopping information
-------------------------------------------------------

    Random number:             0.23008996
    Accumulated probability:   0.00000022
    state mult  level   probability 
    1     1     1       0.00000022
    2     1     2       0.00000000

    
-------------------------------------------------------

  
  &error iter 27        
-------------------------------------------------------
  Energy   MaxStDev:          0.0000    
  Gradient MaxStDev:          0.0000    
  Nac      MaxStDev:          0.0000    
  Soc      MaxStDev:          0.0000    
-------------------------------------------------------

  Iter:       28  Ekin =           0.0697459383132858 au T =   978.85 K dt =         20 CI:   2
  Root chosen for geometry opt   2

  Gnuplot:           0.0000019080958529           0.9999980919042173        -302.9386949891457448        -302.7855541155046240        -302.7855541155046240
  **
  **
  **
  A surface hopping is not allowed
  **
  At state:   2


  &surface hopping information
-------------------------------------------------------

    Random number:             0.74461544
    Accumulated probability:   0.00000032
    state mult  level   probability 
    1     1     1       0.00000032
    2     1     2       0.00000000

    
-------------------------------------------------------

  
  &error iter 28        
-------------------------------------------------------
  Energy   MaxStDev:          0.0000    
  Gradient MaxStDev:          0.0000    
  Nac      MaxStDev:          0.0000    
  Soc      MaxStDev:          0.0000    
-------------------------------------------------------

  Iter:       29  Ekin =           0.0593462463940485 au T =   832.89 K dt =         20 CI:   2
  Root chosen for geometry opt   2

  Gnuplot:           0.0000033865314420           0.9999966134685110        -302.9277082756356663        -302.7747538628156008        -302.7747538628156008
  **
  **
  **
  A surface hopping is not allowed
  **
  At state:   2


  &surface hopping information
-------------------------------------------------------

    Random number:             0.47777805
    Accumulated probability:   0.00000054
    state mult  level   probability 
    1     1     1       0.00000054
    2     1     2       0.00000000

    
-------------------------------------------------------

  
  &error iter 29        
-------------------------------------------------------
  Energy   MaxStDev:          0.0000    
  Gradient MaxStDev:          0.0000    
  Nac      MaxStDev:          0.0000    
  Soc      MaxStDev:          0.0000    
-------------------------------------------------------

  Iter:       30  Ekin =           0.0520203830413832 au T =   730.08 K dt =         20 CI:   2
  Root chosen for geometry opt   2

  Gnuplot:           0.0000057775865360           0.9999942224135339        -302.9201402544303505        -302.7671384568066628        -302.7671384568066628
  **
  **
  **
  A surface hopping is not allowed
  **
  At state:   2


  &surface hopping information
-------------------------------------------------------

    Random number:             0.67112660
    Accumulated probability:   0.00000083
    state mult  level   probability 
    1     1     1       0.00000083
    2     1     2       0.00000000

    
-------------------------------------------------------

  
  &error iter 30        
-------------------------------------------------------
  Energy   MaxStDev:          0.0000    
  Gradient MaxStDev:          0.0000    
  Nac      MaxStDev:          0.0000    
  Soc      MaxStDev:          0.0000    
-------------------------------------------------------

  Iter:       31  Ekin =           0.0518743690974775 au T =   728.03 K dt =         20 CI:   2
  Root chosen for geometry opt   2

  Gnuplot:           0.0000077511228842           0.9999922488768789        -302.9201880169445076        -302.7670703954797204        -302.7670703954797204
  **
  **
  **
  A surface hopping is not allowed
  **
  At state:   2


  &surface hopping information
-------------------------------------------------------

    Random number:             0.24862377
    Accumulated probability:   0.00000104
    state mult  level   probability 
    1     1     1       0.00000104
    2     1     2       0.00000000

    
-------------------------------------------------------

  
  &error iter 31        
-------------------------------------------------------
  Energy   MaxStDev:          0.0000    
  Gradient MaxStDev:          0.0000    
  Nac      MaxStDev:          0.0000    
  Soc      MaxStDev:          0.0000    
-------------------------------------------------------

  Iter:       32  Ekin =           0.0580033273676367 au T =   814.04 K dt =         20 CI:   2
  Root chosen for geometry opt   2

  Gnuplot:           0.0000079179879746           0.9999920820118859        -302.9269297898842979        -302.7735238703354526        -302.7735238703354526
  **
  **
  **
  A surface hopping is not allowed
  **
  At state:   2


  &surface hopping information
-------------------------------------------------------

    Random number:             0.95631200
    Accumulated probability:   0.00000104
    state mult  level   probability 
    1     1     1       0.00000104
    2     1     2       0.00000000

    
-------------------------------------------------------

  
  &error iter 32        
-------------------------------------------------------
  Energy   MaxStDev:          0.0000    
  Gradient MaxStDev:          0.0000    
  Nac      MaxStDev:          0.0000    
  Soc      MaxStDev:          0.0000    
-------------------------------------------------------

  Iter:       33  Ekin =           0.0658123725100680 au T =   923.64 K dt =         20 CI:   2
  Root chosen for geometry opt   2

  Gnuplot:           0.0000066899962719           0.9999933100039016        -302.9353064149157149        -302.7816347029180406        -302.7816347029180406
  **
  **
  **
  A surface hopping is not allowed
  **
  At state:   2


  &surface hopping information
-------------------------------------------------------

    Random number:             0.03191799
    Accumulated probability:   0.00000090
    state mult  level   probability 
    1     1     1       0.00000090
    2     1     2       0.00000000

    
-------------------------------------------------------

  
  &error iter 33        
-------------------------------------------------------
  Energy   MaxStDev:          0.0000    
  Gradient MaxStDev:          0.0000    
  Nac      MaxStDev:          0.0000    
  Soc      MaxStDev:          0.0000    
-------------------------------------------------------

  Iter:       34  Ekin =           0.0704753510490397 au T =   989.08 K dt =         20 CI:   2
  Root chosen for geometry opt   2

  Gnuplot:           0.0000052304192859           0.9999947695805531        -302.9399591752194283        -302.7864786589889832        -302.7864786589889832
  **
  **
  **
  A surface hopping is not allowed
  **
  At state:   2


  &surface hopping information
-------------------------------------------------------

    Random number:             0.16200083
    Accumulated probability:   0.00000071
    state mult  level   probability 
    1     1     1       0.00000071
    2     1     2       0.00000000

    
-------------------------------------------------------

  
  &error iter 34        
-------------------------------------------------------
  Energy   MaxStDev:          0.0000    
  Gradient MaxStDev:          0.0000    
  Nac      MaxStDev:          0.0000    
  Soc      MaxStDev:          0.0000    
-------------------------------------------------------

  Iter:       35  Ekin =           0.0692453750077196 au T =   971.82 K dt =         20 CI:   2
  Root chosen for geometry opt   2

  Gnuplot:           0.0000041038565089           0.9999958961434459        -302.9379396773922508        -302.7851999102999798        -302.7851999102999798
  **
  **
  **
  A surface hopping is not allowed
  **
  At state:   2


  &surface hopping information
-------------------------------------------------------

    Random number:             0.19600947
    Accumulated probability:   0.00000054
    state mult  level   probability 
    1     1     1       0.00000054
    2     1     2       0.00000000

    
-------------------------------------------------------

  
  &error iter 35        
-------------------------------------------------------
  Energy   MaxStDev:          0.0000    
  Gradient MaxStDev:          0.0000    
  Nac      MaxStDev:          0.0000    
  Soc      MaxStDev:          0.0000    
-------------------------------------------------------

  Iter:       36  Ekin =           0.0626221611346760 au T =   878.87 K dt =         20 CI:   2
  Root chosen for geometry opt   2

  Gnuplot:           0.0000031827943470           0.9999968172055560        -302.9298566731946494        -302.7783339730447665        -302.7783339730447665
  **
  **
  **
  A surface hopping is not allowed
  **
  At state:   2


  &surface hopping information
-------------------------------------------------------

    Random number:             0.81031483
    Accumulated probability:   0.00000037
    state mult  level   probability 
    1     1     1       0.00000037
    2     1     2       0.00000000

    
-------------------------------------------------------

  
  &error iter 36        
-------------------------------------------------------
  Energy   MaxStDev:          0.0000    
  Gradient MaxStDev:          0.0000    
  Nac      MaxStDev:          0.0000    
  Soc      MaxStDev:          0.0000    
-------------------------------------------------------

  Iter:       37  Ekin =           0.0537769112543977 au T =   754.73 K dt =         20 CI:   2
  Root chosen for geometry opt   2

  Gnuplot:           0.0000025989738579           0.9999974010261212        -302.9191376587673403        -302.7692382237626703        -302.7692382237626703
  **
  **
  **
  A surface hopping is not allowed
  **
  At state:   2


  &surface hopping information
-------------------------------------------------------

    Random number:             0.44046199
    Accumulated probability:   0.00000028
    state mult  level   probability 
    1     1     1       0.00000028
    2     1     2       0.00000000

    
-------------------------------------------------------

  
  &error iter 37        
-------------------------------------------------------
  Energy   MaxStDev:          0.0000    
  Gradient MaxStDev:          0.0000    
  Nac      MaxStDev:          0.0000    
  Soc      MaxStDev:          0.0000    
-------------------------------------------------------

  Iter:       38  Ekin =           0.0462565726904465 au T =   649.19 K dt =         20 CI:   2
  Root chosen for geometry opt   2

  Gnuplot:           0.0000025310113442           0.9999974689885676        -302.9097470510826611        -302.7615876448264203        -302.7615876448264203
  **
  **
  **
  A surface hopping is not allowed
  **
  At state:   2


  &surface hopping information
-------------------------------------------------------

    Random number:             0.84750229
    Accumulated probability:   0.00000027
    state mult  level   probability 
    1     1     1       0.00000027
    2     1     2       0.00000000

    
-------------------------------------------------------

  
  &error iter 38        
-------------------------------------------------------
  Energy   MaxStDev:          0.0000    
  Gradient MaxStDev:          0.0000    
  Nac      MaxStDev:          0.0000    
  Soc      MaxStDev:          0.0000    
-------------------------------------------------------

  Iter:       39  Ekin =           0.0420642454736839 au T =   590.35 K dt =         20 CI:   2
  Root chosen for geometry opt   2

  Gnuplot:           0.0000027907145398           0.9999972092855387        -302.9041439476635560        -302.7573955755564157        -302.7573955755564157
  **
  **
  **
  A surface hopping is not allowed
  **
  At state:   2


  &surface hopping information
-------------------------------------------------------

    Random number:             0.02734078
    Accumulated probability:   0.00000029
    state mult  level   probability 
    1     1     1       0.00000029
    2     1     2       0.00000000

    
-------------------------------------------------------

  
  &error iter 39        
-------------------------------------------------------
  Energy   MaxStDev:          0.0000    
  Gradient MaxStDev:          0.0000    
  Nac      MaxStDev:          0.0000    
  Soc      MaxStDev:          0.0000    
-------------------------------------------------------

  Iter:       40  Ekin =           0.0413495419931331 au T =   580.32 K dt =         20 CI:   2
  Root chosen for geometry opt   2

  Gnuplot:           0.0000030900186224           0.9999969099812915        -302.9026489790401797        -302.7567294065671604        -302.7567294065671604
  **
  **
  **
  A surface hopping is not allowed
  **
  At state:   2


  &surface hopping information
-------------------------------------------------------

    Random number:             0.52388066
    Accumulated probability:   0.00000031
    state mult  level   probability 
    1     1     1       0.00000031
    2     1     2       0.00000000

    
-------------------------------------------------------

  
  &error iter 40        
-------------------------------------------------------
  Energy   MaxStDev:          0.0000    
  Gradient MaxStDev:          0.0000    
  Nac      MaxStDev:          0.0000    
  Soc      MaxStDev:          0.0000    
-------------------------------------------------------

  Iter:       41  Ekin =           0.0433961463001673 au T =   609.04 K dt =         20 CI:   2
  Root chosen for geometry opt   2

  Gnuplot:           0.0000033057592310           0.9999966942407355        -302.9043425073872413        -302.7588038581807837        -302.7588038581807837
  **
  **
  **
  A surface hopping is not allowed
  **
  At state:   2


  &surface hopping information
-------------------------------------------------------

    Random number:             0.83538866
    Accumulated probability:   0.00000035
    state mult  level   probability 
    1     1     1       0.00000035
    2     1     2       0.00000000

    
-------------------------------------------------------

  
  &error iter 41        
-------------------------------------------------------
  Energy   MaxStDev:          0.0000    
  Gradient MaxStDev:          0.0000    
  Nac      MaxStDev:          0.0000    
  Soc      MaxStDev:          0.0000    
-------------------------------------------------------

  Iter:       42  Ekin =           0.0476608589811161 au T =   668.89 K dt =         20 CI:   2
  Root chosen for geometry opt   2

  Gnuplot:           0.0000034266511900           0.9999965733488807        -302.9083741128283691        -302.7630578379329904        -302.7630578379329904
  **
  **
  **
  A surface hopping is not allowed
  **
  At state:   2


  &surface hopping information
-------------------------------------------------------

    Random number:             0.83534312
    Accumulated probability:   0.00000038
    state mult  level   probability 
    1     1     1       0.00000038
    2     1     2       0.00000000

    
-------------------------------------------------------

  
  &error iter 42        
-------------------------------------------------------
  Energy   MaxStDev:          0.0000    
  Gradient MaxStDev:          0.0000    
  Nac      MaxStDev:          0.0000    
  Soc      MaxStDev:          0.0000    
-------------------------------------------------------

  Iter:       43  Ekin =           0.0540456798467180 au T =   758.50 K dt =         20 CI:   2
  Root chosen for geometry opt   2

  Gnuplot:           0.0000034315806027           0.9999965684194194        -302.9144910487323159        -302.7694415917968058        -302.7694415917968058
  **
  **
  **
  A surface hopping is not allowed
  **
  At state:   2


  &surface hopping information
-------------------------------------------------------

    Random number:             0.31050873
    Accumulated probability:   0.00000041
    state mult  level   probability 
    1     1     1       0.00000041
    2     1     2       0.00000000

    
-------------------------------------------------------

  
  &error iter 43        
-------------------------------------------------------
  Energy   MaxStDev:          0.0000    
  Gradient MaxStDev:          0.0000    
  Nac      MaxStDev:          0.0000    
  Soc      MaxStDev:          0.0000    
-------------------------------------------------------

  Iter:       44  Ekin =           0.0623189832966035 au T =   874.61 K dt =         20 CI:   2
  Root chosen for geometry opt   2

  Gnuplot:           0.0000032769697079           0.9999967230303355        -302.9224592995965963        -302.7777814947984893        -302.7777814947984893
  **
  **
  **
  A surface hopping is not allowed
  **
  At state:   2


  &surface hopping information
-------------------------------------------------------

    Random number:             0.36726555
    Accumulated probability:   0.00000043
    state mult  level   probability 
    1     1     1       0.00000043
    2     1     2       0.00000000

    
-------------------------------------------------------

  
  &error iter 44        
-------------------------------------------------------
  Energy   MaxStDev:          0.0000    
  Gradient MaxStDev:          0.0000    
  Nac      MaxStDev:          0.0000    
  Soc      MaxStDev:          0.0000    
-------------------------------------------------------

  Iter:       45  Ekin =           0.0713721669527555 au T =  1001.67 K dt =         20 CI:   2
  Root chosen for geometry opt   2

  Gnuplot:           0.0000029715855904           0.9999970284143274        -302.9311759414122776        -302.7869766131749429        -302.7869766131749429
  **
  **
  **
  A surface hopping is not allowed
  **
  At state:   2


  &surface hopping information
-------------------------------------------------------

    Random number:             0.49291372
    Accumulated probability:   0.00000041
    state mult  level   probability 
    1     1     1       0.00000041
    2     1     2       0.00000000

    
-------------------------------------------------------

  
  &error iter 45        
-------------------------------------------------------
  Energy   MaxStDev:          0.0000    
  Gradient MaxStDev:          0.0000    
  Nac      MaxStDev:          0.0000    
  Soc      MaxStDev:          0.0000    
-------------------------------------------------------

  Iter:       46  Ekin =           0.0791171130457856 au T =  1110.37 K dt =         20 CI:   2
  Root chosen for geometry opt   2

  Gnuplot:           0.0000025220033622           0.9999974779966578        -302.9384583213605424        -302.7948905757704097        -302.7948905757704097
  **
  **
  **
  A surface hopping is not allowed
  **
  At state:   2


  &surface hopping information
-------------------------------------------------------

    Random number:             0.87132633
    Accumulated probability:   0.00000036
    state mult  level   probability 
    1     1     1       0.00000036
    2     1     2       0.00000000

    
-------------------------------------------------------

  
  &error iter 46        
-------------------------------------------------------
  Energy   MaxStDev:          0.0000    
  Gradient MaxStDev:          0.0000    
  Nac      MaxStDev:          0.0000    
  Soc      MaxStDev:          0.0000    
-------------------------------------------------------

  Iter:       47  Ekin =           0.0831181691566048 au T =  1166.52 K dt =         20 CI:   2
  Root chosen for geometry opt   2

  Gnuplot:           0.0000019449855619           0.9999980550144301        -302.9417590315258622        -302.7990353668097896        -302.7990353668097896
  **
  **
  **
  A surface hopping is not allowed
  **
  At state:   2


  &surface hopping information
-------------------------------------------------------

    Random number:             0.75112122
    Accumulated probability:   0.00000027
    state mult  level   probability 
    1     1     1       0.00000027
    2     1     2       0.00000000

    
-------------------------------------------------------

  
  &error iter 47        
-------------------------------------------------------
  Energy   MaxStDev:          0.0000    
  Gradient MaxStDev:          0.0000    
  Nac      MaxStDev:          0.0000    
  Soc      MaxStDev:          0.0000    
-------------------------------------------------------

  Iter:       48  Ekin =           0.0815453383693456 au T =  1144.44 K dt =         20 CI:   2
  Root chosen for geometry opt   2

  Gnuplot:           0.0000014124712530           0.9999985875286939        -302.9392910794182399        -302.7975038802514973        -302.7975038802514973
  **
  **
  **
  A surface hopping is not allowed
  **
  At state:   2


  &surface hopping information
-------------------------------------------------------

    Random number:             0.06073962
    Accumulated probability:   0.00000018
    state mult  level   probability 
    1     1     1       0.00000018
    2     1     2       0.00000000

    
-------------------------------------------------------

  
  &error iter 48        
-------------------------------------------------------
  Energy   MaxStDev:          0.0000    
  Gradient MaxStDev:          0.0000    
  Nac      MaxStDev:          0.0000    
  Soc      MaxStDev:          0.0000    
-------------------------------------------------------

  Iter:       49  Ekin =           0.0746641018343848 au T =  1047.87 K dt =         20 CI:   2
  Root chosen for geometry opt   2

  Gnuplot:           0.0000010269778874           0.9999989730221159        -302.9314290591181020        -302.7903820342609720        -302.7903820342609720
  **
  **
  **
  A surface hopping is not allowed
  **
  At state:   2


  &surface hopping information
-------------------------------------------------------

    Random number:             0.49868822
    Accumulated probability:   0.00000012
    state mult  level   probability 
    1     1     1       0.00000012
    2     1     2       0.00000000

    
-------------------------------------------------------

  
  &error iter 49        
-------------------------------------------------------
  Energy   MaxStDev:          0.0000    
  Gradient MaxStDev:          0.0000    
  Nac      MaxStDev:          0.0000    
  Soc      MaxStDev:          0.0000    
-------------------------------------------------------

  Iter:       50  Ekin =           0.0662823770572196 au T =   930.24 K dt =         20 CI:   2
  Root chosen for geometry opt   2

  Gnuplot:           0.0000007370946248           0.9999992629053622        -302.9220347427776119        -302.7816115508029498        -302.7816115508029498
  **
  **
  **
  A surface hopping is not allowed
  **
  At state:   2


  &surface hopping information
-------------------------------------------------------

    Random number:             0.16322003
    Accumulated probability:   0.00000008
    state mult  level   probability 
    1     1     1       0.00000008
    2     1     2       0.00000000

    
-------------------------------------------------------

  
  &error iter 50        
-------------------------------------------------------
  Energy   MaxStDev:          0.0000    
  Gradient MaxStDev:          0.0000    
  Nac      MaxStDev:          0.0000    
  Soc      MaxStDev:          0.0000    
-------------------------------------------------------

  Iter:       51  Ekin =           0.0617363571364378 au T =   866.44 K dt =         20 CI:   2
  Root chosen for geometry opt   2

  Gnuplot:           0.0000004871369313           0.9999995128630417        -302.9166044898399264        -302.7769000741242280        -302.7769000741242280
  **
  **
  **
  A surface hopping is not allowed
  **
  At state:   2


  &surface hopping information
-------------------------------------------------------

    Random number:             0.63735676
    Accumulated probability:   0.00000005
    state mult  level   probability 
    1     1     1       0.00000005
    2     1     2       0.00000000

    
-------------------------------------------------------

  
  &error iter 51        
-------------------------------------------------------
  Energy   MaxStDev:          0.0000    
  Gradient MaxStDev:          0.0000    
  Nac      MaxStDev:          0.0000    
  Soc      MaxStDev:          0.0000    
-------------------------------------------------------

  Iter:       52  Ekin =           0.0634710727972294 au T =   890.78 K dt =         20 CI:   2
  Root chosen for geometry opt   2

  Gnuplot:           0.0000002662628802           0.9999997337371269        -302.9178379064369437        -302.7787957938762133        -302.7787957938762133
  **
  **
  **
  A surface hopping is not allowed
  **
  At state:   2


  &surface hopping information
-------------------------------------------------------

    Random number:             0.82653016
    Accumulated probability:   0.00000002
    state mult  level   probability 
    1     1     1       0.00000002
    2     1     2       0.00000000

    
-------------------------------------------------------

  
  &error iter 52        
-------------------------------------------------------
  Energy   MaxStDev:          0.0000    
  Gradient MaxStDev:          0.0000    
  Nac      MaxStDev:          0.0000    
  Soc      MaxStDev:          0.0000    
-------------------------------------------------------

  Iter:       53  Ekin =           0.0693267584829644 au T =   972.96 K dt =         20 CI:   2
  Root chosen for geometry opt   2

  Gnuplot:           0.0000001298207753           0.9999998701792236        -302.9234741529293160        -302.7849763942653567        -302.7849763942653567
  **
  **
  **
  A surface hopping is not allowed
  **
  At state:   2


  &surface hopping information
-------------------------------------------------------

    Random number:             0.29489470
    Accumulated probability:   0.00000001
    state mult  level   probability 
    1     1     1       0.00000001
    2     1     2       0.00000000

    
-------------------------------------------------------

  
  &error iter 53        
-------------------------------------------------------
  Energy   MaxStDev:          0.0000    
  Gradient MaxStDev:          0.0000    
  Nac      MaxStDev:          0.0000    
  Soc      MaxStDev:          0.0000    
-------------------------------------------------------

  Iter:       54  Ekin =           0.0745860621001202 au T =  1046.77 K dt =         20 CI:   2
  Root chosen for geometry opt   2

  Gnuplot:           0.0000000652718809           0.9999999347281161        -302.9284291052980507        -302.7904865983416585        -302.7904865983416585
  **
  **
  **
  A surface hopping is not allowed
  **
  At state:   2


  &surface hopping information
-------------------------------------------------------

    Random number:             0.39012530
    Accumulated probability:   0.00000001
    state mult  level   probability 
    1     1     1       0.00000001
    2     1     2       0.00000000

    
-------------------------------------------------------

  
  &error iter 54        
-------------------------------------------------------
  Energy   MaxStDev:          0.0000    
  Gradient MaxStDev:          0.0000    
  Nac      MaxStDev:          0.0000    
  Soc      MaxStDev:          0.0000    
-------------------------------------------------------

  Iter:       55  Ekin =           0.0753482308766342 au T =  1057.47 K dt =         20 CI:   2
  Root chosen for geometry opt   2

  Gnuplot:           0.0000000285899009           0.9999999714100998        -302.9288733111054057        -302.7912981429673778        -302.7912981429673778
  **
  **
  **
  A surface hopping is not allowed
  **
  At state:   2


  &surface hopping information
-------------------------------------------------------

    Random number:             0.23563835
    Accumulated probability:   0.00000000
    state mult  level   probability 
    1     1     1       0.00000000
    2     1     2       0.00000000

    
-------------------------------------------------------

  
  &error iter 55        
-------------------------------------------------------
  Energy   MaxStDev:          0.0000    
  Gradient MaxStDev:          0.0000    
  Nac      MaxStDev:          0.0000    
  Soc      MaxStDev:          0.0000    
-------------------------------------------------------

  Iter:       56  Ekin =           0.0706240292841016 au T =   991.17 K dt =         20 CI:   2
  Root chosen for geometry opt   2

  Gnuplot:           0.0000000079259832           0.9999999920740166        -302.9239493121839359        -302.7864194655231813        -302.7864194655231813
  **
  **
  **
  A surface hopping is not allowed
  **
  At state:   2


  &surface hopping information
-------------------------------------------------------

    Random number:             0.38442123
    Accumulated probability:   0.00000000
    state mult  level   probability 
    1     1     1       0.00000000
    2     1     2       0.00000000

    
-------------------------------------------------------

  
  &error iter 56        
-------------------------------------------------------
  Energy   MaxStDev:          0.0000    
  Gradient MaxStDev:          0.0000    
  Nac      MaxStDev:          0.0000    
  Soc      MaxStDev:          0.0000    
-------------------------------------------------------

  Iter:       57  Ekin =           0.0623269855269236 au T =   874.73 K dt =         20 CI:   2
  Root chosen for geometry opt   2

  Gnuplot:           0.0000000015122785           0.9999999984877215        -302.9155142698168106        -302.7778958174471882        -302.7778958174471882
  **
  **
  **
  A surface hopping is not allowed
  **
  At state:   2


  &surface hopping information
-------------------------------------------------------

    Random number:             0.86853385
    Accumulated probability:   0.00000000
    state mult  level   probability 
    1     1     1       0.00000000
    2     1     2       0.00000000

    
-------------------------------------------------------

  
  &error iter 57        
-------------------------------------------------------
  Energy   MaxStDev:          0.0000    
  Gradient MaxStDev:          0.0000    
  Nac      MaxStDev:          0.0000    
  Soc      MaxStDev:          0.0000    
-------------------------------------------------------

  Iter:       58  Ekin =           0.0536268822431837 au T =   752.62 K dt =         20 CI:   2
  Root chosen for geometry opt   2

  Gnuplot:           0.0000000191311529           0.9999999808688464        -302.9067512955945176        -302.7690202501137833        -302.7690202501137833
  **
  **
  **
  A surface hopping is not allowed
  **
  At state:   2


  &surface hopping information
-------------------------------------------------------

    Random number:             0.26602650
    Accumulated probability:   0.00000000
    state mult  level   probability 
    1     1     1       0.00000000
    2     1     2       0.00000000

    
-------------------------------------------------------

  
  &error iter 58        
-------------------------------------------------------
  Energy   MaxStDev:          0.0000    
  Gradient MaxStDev:          0.0000    
  Nac      MaxStDev:          0.0000    
  Soc      MaxStDev:          0.0000    
-------------------------------------------------------

  Iter:       59  Ekin =           0.0470712709591564 au T =   660.62 K dt =         20 CI:   2
  Root chosen for geometry opt   2

  Gnuplot:           0.0000000454585868           0.9999999545414120        -302.9002354443771310        -302.7624093654350759        -302.7624093654350759
  **
  **
  **
  A surface hopping is not allowed
  **
  At state:   2


  &surface hopping information
-------------------------------------------------------

    Random number:             0.39126256
    Accumulated probability:   0.00000001
    state mult  level   probability 
    1     1     1       0.00000001
    2     1     2       0.00000000

    
-------------------------------------------------------

  
  &error iter 59        
-------------------------------------------------------
  Energy   MaxStDev:          0.0000    
  Gradient MaxStDev:          0.0000    
  Nac      MaxStDev:          0.0000    
  Soc      MaxStDev:          0.0000    
-------------------------------------------------------

  Iter:       60  Ekin =           0.0436137364227471 au T =   612.09 K dt =         20 CI:   2
  Root chosen for geometry opt   2

  Gnuplot:           0.0000000480007625           0.9999999519992357        -302.8968622749929978        -302.7589805292356004        -302.7589805292356004
  **
  **
  **
  A surface hopping is not allowed
  **
  At state:   2


  &surface hopping information
-------------------------------------------------------

    Random number:             0.86737633
    Accumulated probability:   0.00000000
    state mult  level   probability 
    1     1     1       0.00000000
    2     1     2       0.00000000

    
-------------------------------------------------------

  
  &error iter 60        
-------------------------------------------------------
  Energy   MaxStDev:          0.0000    
  Gradient MaxStDev:          0.0000    
  Nac      MaxStDev:          0.0000    
  Soc      MaxStDev:          0.0000    
-------------------------------------------------------

  Iter:       61  Ekin =           0.0429907848111645 au T =   603.35 K dt =         20 CI:   2
  Root chosen for geometry opt   2

  Gnuplot:           0.0000000269559510           0.9999999730440496        -302.8962838633123056        -302.7583912844721681        -302.7583912844721681
  **
  **
  **
  A surface hopping is not allowed
  **
  At state:   2


  &surface hopping information
-------------------------------------------------------

    Random number:             0.87273532
    Accumulated probability:   0.00000000
    state mult  level   probability 
    1     1     1       0.00000000
    2     1     2       0.00000000

    
-------------------------------------------------------

  
  &error iter 61        
-------------------------------------------------------
  Energy   MaxStDev:          0.0000    
  Gradient MaxStDev:          0.0000    
  Nac      MaxStDev:          0.0000    
  Soc      MaxStDev:          0.0000    
-------------------------------------------------------

  Iter:       62  Ekin =           0.0447036737332160 au T =   627.39 K dt =         20 CI:   2
  Root chosen for geometry opt   2

  Gnuplot:           0.0000000069835140           0.9999999930164858        -302.8979245896063617        -302.7601121844526801        -302.7601121844526801
  **
  **
  **
  A surface hopping is not allowed
  **
  At state:   2


  &surface hopping information
-------------------------------------------------------

    Random number:             0.11751797
    Accumulated probability:   0.00000000
    state mult  level   probability 
    1     1     1       0.00000000
    2     1     2       0.00000000

    
-------------------------------------------------------

  
  &error iter 62        
-------------------------------------------------------
  Energy   MaxStDev:          0.0000    
  Gradient MaxStDev:          0.0000    
  Nac      MaxStDev:          0.0000    
  Soc      MaxStDev:          0.0000    
-------------------------------------------------------

  Iter:       63  Ekin =           0.0484994328335093 au T =   680.66 K dt =         20 CI:   2
  Root chosen for geometry opt   2

  Gnuplot:           0.0000000004387602           0.9999999995612397        -302.9014975434012058        -302.7639080303561059        -302.7639080303561059
  **
  **
  **
  A surface hopping is not allowed
  **
  At state:   2


  &surface hopping information
-------------------------------------------------------

    Random number:             0.19332297
    Accumulated probability:   0.00000000
    state mult  level   probability 
    1     1     1       0.00000000
    2     1     2       0.00000000

    
-------------------------------------------------------

  
  &error iter 63        
-------------------------------------------------------
  Energy   MaxStDev:          0.0000    
  Gradient MaxStDev:          0.0000    
  Nac      MaxStDev:          0.0000    
  Soc      MaxStDev:          0.0000    
-------------------------------------------------------

  Iter:       64  Ekin =           0.0541556076123456 au T =   760.04 K dt =         20 CI:   2
  Root chosen for geometry opt   2

  Gnuplot:           0.0000000016308662           0.9999999983691338        -302.9067755896917902        -302.7695981254626076        -302.7695981254626076
  **
  **
  **
  A surface hopping is not allowed
  **
  At state:   2


  &surface hopping information
-------------------------------------------------------

    Random number:             0.74706012
    Accumulated probability:   0.00000000
    state mult  level   probability 
    1     1     1       0.00000000
    2     1     2       0.00000000

    
-------------------------------------------------------

  
  &error iter 64        
-------------------------------------------------------
  Energy   MaxStDev:          0.0000    
  Gradient MaxStDev:          0.0000    
  Nac      MaxStDev:          0.0000    
  Soc      MaxStDev:          0.0000    
-------------------------------------------------------

  Iter:       65  Ekin =           0.0609713222558952 au T =   855.70 K dt =         20 CI:   2
  Root chosen for geometry opt   2

  Gnuplot:           0.0000000033599125           0.9999999966400874        -302.9130807944366666        -302.7765037837112914        -302.7765037837112914
  **
  **
  **
  A surface hopping is not allowed
  **
  At state:   2


  &surface hopping information
-------------------------------------------------------

    Random number:             0.24655974
    Accumulated probability:   0.00000000
    state mult  level   probability 
    1     1     1       0.00000000
    2     1     2       0.00000000

    
-------------------------------------------------------

  
  &error iter 65        
-------------------------------------------------------
  Energy   MaxStDev:          0.0000    
  Gradient MaxStDev:          0.0000    
  Nac      MaxStDev:          0.0000    
  Soc      MaxStDev:          0.0000    
-------------------------------------------------------

  Iter:       66  Ekin =           0.0675078225118977 au T =   947.44 K dt =         20 CI:   2
  Root chosen for geometry opt   2

  Gnuplot:           0.0000000113550335           0.9999999886449666        -302.9191121619051046        -302.7831727417602679        -302.7831727417602679
  **
  **
  **
  A surface hopping is not allowed
  **
  At state:   2


  &surface hopping information
-------------------------------------------------------

    Random number:             0.21946178
    Accumulated probability:   0.00000000
    state mult  level   probability 
    1     1     1       0.00000000
    2     1     2       0.00000000

    
-------------------------------------------------------

  
  &error iter 66        
-------------------------------------------------------
  Energy   MaxStDev:          0.0000    
  Gradient MaxStDev:          0.0000    
  Nac      MaxStDev:          0.0000    
  Soc      MaxStDev:          0.0000    
-------------------------------------------------------

  Iter:       67  Ekin =           0.0718008650238615 au T =  1007.69 K dt =         20 CI:   2
  Root chosen for geometry opt   2

  Gnuplot:           0.0000000389538127           0.9999999610461856        -302.9230704881016436        -302.7876023470864766        -302.7876023470864766
  **
  **
  **
  A surface hopping is not allowed
  **
  At state:   2


  &surface hopping information
-------------------------------------------------------

    Random number:             0.99920124
    Accumulated probability:   0.00000001
    state mult  level   probability 
    1     1     1       0.00000001
    2     1     2       0.00000000

    
-------------------------------------------------------

  
  &error iter 67        
-------------------------------------------------------
  Energy   MaxStDev:          0.0000    
  Gradient MaxStDev:          0.0000    
  Nac      MaxStDev:          0.0000    
  Soc      MaxStDev:          0.0000    
-------------------------------------------------------

  Iter:       68  Ekin =           0.0719895490430480 au T =  1010.33 K dt =         20 CI:   2
  Root chosen for geometry opt   2

  Gnuplot:           0.0000000739471468           0.9999999260528512        -302.9230276891952940        -302.7878631383836137        -302.7878631383836137
  **
  **
  **
  A surface hopping is not allowed
  **
  At state:   2


  &surface hopping information
-------------------------------------------------------

    Random number:             0.73272729
    Accumulated probability:   0.00000001
    state mult  level   probability 
    1     1     1       0.00000001
    2     1     2       0.00000000

    
-------------------------------------------------------

  
  &error iter 68        
-------------------------------------------------------
  Energy   MaxStDev:          0.0000    
  Gradient MaxStDev:          0.0000    
  Nac      MaxStDev:          0.0000    
  Soc      MaxStDev:          0.0000    
-------------------------------------------------------

  Iter:       69  Ekin =           0.0674176037192071 au T =   946.17 K dt =         20 CI:   2
  Root chosen for geometry opt   2

  Gnuplot:           0.0000001116546616           0.9999998883453358        -302.9179401165150125        -302.7831893878489495        -302.7831893878489495
  **
  **
  **
  A surface hopping is not allowed
  **
  At state:   2


  &surface hopping information
-------------------------------------------------------

    Random number:             0.93929583
    Accumulated probability:   0.00000002
    state mult  level   probability 
    1     1     1       0.00000002
    2     1     2       0.00000000

    
-------------------------------------------------------

  
  &error iter 69        
-------------------------------------------------------
  Energy   MaxStDev:          0.0000    
  Gradient MaxStDev:          0.0000    
  Nac      MaxStDev:          0.0000    
  Soc      MaxStDev:          0.0000    
-------------------------------------------------------

  Iter:       70  Ekin =           0.0599134840276654 au T =   840.85 K dt =         20 CI:   2
  Root chosen for geometry opt   2

  Gnuplot:           0.0000001623114925           0.9999998376885060        -302.9092466939828228        -302.7754033506010956        -302.7754033506010956
  **
  **
  **
  A surface hopping is not allowed
  **
  At state:   2


  &surface hopping information
-------------------------------------------------------

    Random number:             0.88738877
    Accumulated probability:   0.00000002
    state mult  level   probability 
    1     1     1       0.00000002
    2     1     2       0.00000000

    
-------------------------------------------------------

  
  &error iter 70        
-------------------------------------------------------
  Energy   MaxStDev:          0.0000    
  Gradient MaxStDev:          0.0000    
  Nac      MaxStDev:          0.0000    
  Soc      MaxStDev:          0.0000    
-------------------------------------------------------

  Iter:       71  Ekin =           0.0535984596326971 au T =   752.22 K dt =         20 CI:   2
  Root chosen for geometry opt   2

  Gnuplot:           0.0000001867940850           0.9999998132059176        -302.9014556762400048        -302.7688126012578778        -302.7688126012578778
  **
  **
  **
  A surface hopping is not allowed
  **
  At state:   2


  &surface hopping information
-------------------------------------------------------

    Random number:             0.21293491
    Accumulated probability:   0.00000002
    state mult  level   probability 
    1     1     1       0.00000002
    2     1     2       0.00000000

    
-------------------------------------------------------

  
  &error iter 71        
-------------------------------------------------------
  Energy   MaxStDev:          0.0000    
  Gradient MaxStDev:          0.0000    
  Nac      MaxStDev:          0.0000    
  Soc      MaxStDev:          0.0000    
-------------------------------------------------------

  Iter:       72  Ekin =           0.0525038606042860 au T =   736.86 K dt =         20 CI:   2
  Root chosen for geometry opt   2

  Gnuplot:           0.0000001911236372           0.9999998088763675        -302.8993339166729015        -302.7676294109418222        -302.7676294109418222
  **
  **
  **
  A surface hopping is not allowed
  **
  At state:   2


  &surface hopping information
-------------------------------------------------------

    Random number:             0.67282635
    Accumulated probability:   0.00000002
    state mult  level   probability 
    1     1     1       0.00000002
    2     1     2       0.00000000

    
[...]
  **
  **
  **
  A surface hopping is not allowed
  **
  At state:   1


  &surface hopping information
-------------------------------------------------------

    Random number:             0.64501590
    Accumulated probability:   0.00000002
    state mult  level   probability 
    1     1     1       0.00000000
    2     1     2       0.00000002

    
-------------------------------------------------------

  
  &error iter 1981      
-------------------------------------------------------
  Energy   MaxStDev:          0.0000    
  Gradient MaxStDev:          0.0000    
  Nac      MaxStDev:          0.0000    
  Soc      MaxStDev:          0.0000    
-------------------------------------------------------

  Iter:     1982  Ekin =           0.1788231346699770 au T =  2509.68 K dt =         20 CI:   2
  Root chosen for geometry opt   1

  Gnuplot:           0.9999999411050382           0.0000000588949617        -302.8938888193723642        -302.6864939383400497        -302.8938888193723642
  **
  **
  **
  A surface hopping is not allowed
  **
  At state:   1


  &surface hopping information
-------------------------------------------------------

    Random number:             0.45798120
    Accumulated probability:   0.00000002
    state mult  level   probability 
    1     1     1       0.00000000
    2     1     2       0.00000002

    
-------------------------------------------------------

  
  &error iter 1982      
-------------------------------------------------------
  Energy   MaxStDev:          0.0000    
  Gradient MaxStDev:          0.0000    
  Nac      MaxStDev:          0.0000    
  Soc      MaxStDev:          0.0000    
-------------------------------------------------------

  Iter:     1983  Ekin =           0.1905484874166897 au T =  2674.24 K dt =         20 CI:   2
  Root chosen for geometry opt   1

  Gnuplot:           0.9999999780902815           0.0000000219097192        -302.9057420890888466        -302.6979314648347668        -302.9057420890888466
  **
  **
  **
  A surface hopping is not allowed
  **
  At state:   1


  &surface hopping information
-------------------------------------------------------

    Random number:             0.44864148
    Accumulated probability:   0.00000001
    state mult  level   probability 
    1     1     1       0.00000000
    2     1     2       0.00000001

    
-------------------------------------------------------

  
  &error iter 1983      
-------------------------------------------------------
  Energy   MaxStDev:          0.0000    
  Gradient MaxStDev:          0.0000    
  Nac      MaxStDev:          0.0000    
  Soc      MaxStDev:          0.0000    
-------------------------------------------------------

  Iter:     1984  Ekin =           0.2028219905192813 au T =  2846.50 K dt =         20 CI:   2
  Root chosen for geometry opt   1

  Gnuplot:           0.9999999842081930           0.0000000157918065        -302.9181894143906106        -302.7098402344724377        -302.9181894143906106
  **
  **
  **
  A surface hopping is not allowed
  **
  At state:   1


  &surface hopping information
-------------------------------------------------------

    Random number:             0.06647816
    Accumulated probability:   0.00000001
    state mult  level   probability 
    1     1     1       0.00000000
    2     1     2       0.00000001

    
-------------------------------------------------------

  
  &error iter 1984      
-------------------------------------------------------
  Energy   MaxStDev:          0.0000    
  Gradient MaxStDev:          0.0000    
  Nac      MaxStDev:          0.0000    
  Soc      MaxStDev:          0.0000    
-------------------------------------------------------

  Iter:     1985  Ekin =           0.2129778932025116 au T =  2989.03 K dt =         20 CI:   2
  Root chosen for geometry opt   1

  Gnuplot:           0.9999999797720882           0.0000000202279114        -302.9285751656846060        -302.7201910471156339        -302.9285751656846060
  **
  **
  **
  A surface hopping is not allowed
  **
  At state:   1


  &surface hopping information
-------------------------------------------------------

    Random number:             0.79867232
    Accumulated probability:   0.00000001
    state mult  level   probability 
    1     1     1       0.00000000
    2     1     2       0.00000001

    
-------------------------------------------------------

  
  &error iter 1985      
-------------------------------------------------------
  Energy   MaxStDev:          0.0000    
  Gradient MaxStDev:          0.0000    
  Nac      MaxStDev:          0.0000    
  Soc      MaxStDev:          0.0000    
-------------------------------------------------------

  Iter:     1986  Ekin =           0.2180973655204076 au T =  3060.88 K dt =         20 CI:   2
  Root chosen for geometry opt   1

  Gnuplot:           0.9999999986666255           0.0000000013333746        -302.9338141601023153        -302.7260824473603975        -302.9338141601023153
  **
  **
  **
  A surface hopping is not allowed
  **
  At state:   1


  &surface hopping information
-------------------------------------------------------

    Random number:             0.98079145
    Accumulated probability:   0.00000000
    state mult  level   probability 
    1     1     1       0.00000000
    2     1     2       0.00000000

    
-------------------------------------------------------

  
  &error iter 1986      
-------------------------------------------------------
  Energy   MaxStDev:          0.0000    
  Gradient MaxStDev:          0.0000    
  Nac      MaxStDev:          0.0000    
  Soc      MaxStDev:          0.0000    
-------------------------------------------------------

  Iter:     1987  Ekin =           0.2168126837085275 au T =  3042.85 K dt =         20 CI:   2
  Root chosen for geometry opt   1

  Gnuplot:           0.9999999995892082           0.0000000004107918        -302.9324218902047505        -302.7249677109880395        -302.9324218902047505
  **
  **
  **
  A surface hopping is not allowed
  **
  At state:   1


  &surface hopping information
-------------------------------------------------------

    Random number:             0.32165313
    Accumulated probability:   0.00000000
    state mult  level   probability 
    1     1     1       0.00000000
    2     1     2       0.00000000

    
-------------------------------------------------------

  
  &error iter 1987      
-------------------------------------------------------
  Energy   MaxStDev:          0.0000    
  Gradient MaxStDev:          0.0000    
  Nac      MaxStDev:          0.0000    
  Soc      MaxStDev:          0.0000    
-------------------------------------------------------

  Iter:     1988  Ekin =           0.2108866842783428 au T =  2959.68 K dt =         20 CI:   2
  Root chosen for geometry opt   1

  Gnuplot:           0.9999999978619032           0.0000000021380969        -302.9262034872044751        -302.7184124149084141        -302.9262034872044751
  **
  **
  **
  A surface hopping is not allowed
  **
  At state:   1


  &surface hopping information
-------------------------------------------------------

    Random number:             0.78811175
    Accumulated probability:   0.00000000
    state mult  level   probability 
    1     1     1       0.00000000
    2     1     2       0.00000000

    
-------------------------------------------------------

  
  &error iter 1988      
-------------------------------------------------------
  Energy   MaxStDev:          0.0000    
  Gradient MaxStDev:          0.0000    
  Nac      MaxStDev:          0.0000    
  Soc      MaxStDev:          0.0000    
-------------------------------------------------------

  Iter:     1989  Ekin =           0.2044607271490105 au T =  2869.49 K dt =         20 CI:   2
  Root chosen for geometry opt   1

  Gnuplot:           0.9999999982195061           0.0000000017804939        -302.9195398035537892        -302.7103984210062890        -302.9195398035537892
  **
  **
  **
  A surface hopping is not allowed
  **
  At state:   1


  &surface hopping information
-------------------------------------------------------

    Random number:             0.90338302
    Accumulated probability:   0.00000000
    state mult  level   probability 
    1     1     1       0.00000000
    2     1     2       0.00000000

    
-------------------------------------------------------

  
  &error iter 1989      
-------------------------------------------------------
  Energy   MaxStDev:          0.0000    
  Gradient MaxStDev:          0.0000    
  Nac      MaxStDev:          0.0000    
  Soc      MaxStDev:          0.0000    
-------------------------------------------------------

  Iter:     1990  Ekin =           0.2011427576449086 au T =  2822.93 K dt =         20 CI:   2
  Root chosen for geometry opt   1

  Gnuplot:           0.9999998550654112           0.0000001449345850        -302.9161687266048375        -302.7043700406472908        -302.9161687266048375
  **
  **
  **
  A surface hopping is not allowed
  **
  At state:   1


  &surface hopping information
-------------------------------------------------------

    Random number:             0.69175953
    Accumulated probability:   0.00000008
    state mult  level   probability 
    1     1     1       0.00000000
    2     1     2       0.00000008

    
-------------------------------------------------------

  
  &error iter 1990      
-------------------------------------------------------
  Energy   MaxStDev:          0.0000    
  Gradient MaxStDev:          0.0000    
  Nac      MaxStDev:          0.0000    
  Soc      MaxStDev:          0.0000    
-------------------------------------------------------

  Iter:     1991  Ekin =           0.2019279841789766 au T =  2833.95 K dt =         20 CI:   2
  Root chosen for geometry opt   1

  Gnuplot:           0.9999979246438215           0.0000020753561295        -302.9170731281263329        -302.7019607610404250        -302.9170731281263329
  **
  **
  **
  A surface hopping is not allowed
  **
  At state:   1


  &surface hopping information
-------------------------------------------------------

    Random number:             0.03988383
    Accumulated probability:   0.00000105
    state mult  level   probability 
    1     1     1       0.00000000
    2     1     2       0.00000105

    
-------------------------------------------------------

  
  &error iter 1991      
-------------------------------------------------------
  Energy   MaxStDev:          0.0000    
  Gradient MaxStDev:          0.0000    
  Nac      MaxStDev:          0.0000    
  Soc      MaxStDev:          0.0000    
-------------------------------------------------------

  Iter:     1992  Ekin =           0.2051456989317081 au T =  2879.11 K dt =         20 CI:   2
  Root chosen for geometry opt   1

  Gnuplot:           0.9999950364281176           0.0000049635719895        -302.9204837747922170        -302.7027723771890351        -302.9204837747922170
  **
  **
  **
  A surface hopping is not allowed
  **
  At state:   1


  &surface hopping information
-------------------------------------------------------

    Random number:             0.53074545
    Accumulated probability:   0.00000228
    state mult  level   probability 
    1     1     1       0.00000000
    2     1     2       0.00000228

    
-------------------------------------------------------

  
  &error iter 1992      
-------------------------------------------------------
  Energy   MaxStDev:          0.0000    
  Gradient MaxStDev:          0.0000    
  Nac      MaxStDev:          0.0000    
  Soc      MaxStDev:          0.0000    
-------------------------------------------------------

  Iter:     1993  Ekin =           0.2078556593335942 au T =  2917.14 K dt =         20 CI:   2
  Root chosen for geometry opt   1

  Gnuplot:           0.9999950228730086           0.0000049771270396        -302.9233359785988569        -302.7045424751206042        -302.9233359785988569
  **
  **
  **
  A surface hopping is not allowed
  **
  At state:   1


  &surface hopping information
-------------------------------------------------------

    Random number:             0.43270925
    Accumulated probability:   0.00000205
    state mult  level   probability 
    1     1     1       0.00000000
    2     1     2       0.00000205

    
-------------------------------------------------------

  
  &error iter 1993      
-------------------------------------------------------
  Energy   MaxStDev:          0.0000    
  Gradient MaxStDev:          0.0000    
  Nac      MaxStDev:          0.0000    
  Soc      MaxStDev:          0.0000    
-------------------------------------------------------

  Iter:     1994  Ekin =           0.2076452974336132 au T =  2914.19 K dt =         20 CI:   2
  Root chosen for geometry opt   1

  Gnuplot:           0.9999967363912674           0.0000032636086795        -302.9231600424441240        -302.7049319657626825        -302.9231600424441240
  **
  **
  **
  A surface hopping is not allowed
  **
  At state:   1


  &surface hopping information
-------------------------------------------------------

    Random number:             0.41259766
    Accumulated probability:   0.00000123
    state mult  level   probability 
    1     1     1       0.00000000
    2     1     2       0.00000123

    
-------------------------------------------------------

  
  &error iter 1994      
-------------------------------------------------------
  Energy   MaxStDev:          0.0000    
  Gradient MaxStDev:          0.0000    
  Nac      MaxStDev:          0.0000    
  Soc      MaxStDev:          0.0000    
-------------------------------------------------------

  Iter:     1995  Ekin =           0.2035839912294644 au T =  2857.19 K dt =         20 CI:   2
  Root chosen for geometry opt   1

  Gnuplot:           0.9999985368832540           0.0000014631167957        -302.9190418421076174        -302.7028826165467308        -302.9190418421076174
  **
  **
  **
  A surface hopping is not allowed
  **
  At state:   1


  &surface hopping information
-------------------------------------------------------

    Random number:             0.93951470
    Accumulated probability:   0.00000049
    state mult  level   probability 
    1     1     1       0.00000000
    2     1     2       0.00000049

    
-------------------------------------------------------

  
  &error iter 1995      
-------------------------------------------------------
  Energy   MaxStDev:          0.0000    
  Gradient MaxStDev:          0.0000    
  Nac      MaxStDev:          0.0000    
  Soc      MaxStDev:          0.0000    
-------------------------------------------------------

  Iter:     1996  Ekin =           0.1960975809291845 au T =  2752.12 K dt =         20 CI:   2
  Root chosen for geometry opt   1

  Gnuplot:           0.9999995392804522           0.0000004607195597        -302.9114631250099592        -302.6982102746437704        -302.9114631250099592
  **
  **
  **
  A surface hopping is not allowed
  **
  At state:   1


  &surface hopping information
-------------------------------------------------------

    Random number:             0.79703617
    Accumulated probability:   0.00000013
    state mult  level   probability 
    1     1     1       0.00000000
    2     1     2       0.00000013

    
-------------------------------------------------------

  
  &error iter 1996      
-------------------------------------------------------
  Energy   MaxStDev:          0.0000    
  Gradient MaxStDev:          0.0000    
  Nac      MaxStDev:          0.0000    
  Soc      MaxStDev:          0.0000    
-------------------------------------------------------

  Iter:     1997  Ekin =           0.1863639556655224 au T =  2615.52 K dt =         20 CI:   2
  Root chosen for geometry opt   1

  Gnuplot:           0.9999998784106054           0.0000001215893931        -302.9016182594283464        -302.6919446348427982        -302.9016182594283464
  **
  **
  **
  A surface hopping is not allowed
  **
  At state:   1


  &surface hopping information
-------------------------------------------------------

    Random number:             0.37998524
    Accumulated probability:   0.00000003
    state mult  level   probability 
    1     1     1       0.00000000
    2     1     2       0.00000003

    
-------------------------------------------------------

  
  &error iter 1997      
-------------------------------------------------------
  Energy   MaxStDev:          0.0000    
  Gradient MaxStDev:          0.0000    
  Nac      MaxStDev:          0.0000    
  Soc      MaxStDev:          0.0000    
-------------------------------------------------------

  Iter:     1998  Ekin =           0.1759495938884369 au T =  2469.36 K dt =         20 CI:   2
  Root chosen for geometry opt   1

  Gnuplot:           0.9999999493279361           0.0000000506720646        -302.8910852380907386        -302.6855278070929671        -302.8910852380907386
  **
  **
  **
  A surface hopping is not allowed
  **
  At state:   1


  &surface hopping information
-------------------------------------------------------

    Random number:             0.30053672
    Accumulated probability:   0.00000002
    state mult  level   probability 
    1     1     1       0.00000000
    2     1     2       0.00000002

    
-------------------------------------------------------

  
  &error iter 1998      
-------------------------------------------------------
  Energy   MaxStDev:          0.0000    
  Gradient MaxStDev:          0.0000    
  Nac      MaxStDev:          0.0000    
  Soc      MaxStDev:          0.0000    
-------------------------------------------------------

  Iter:     1999  Ekin =           0.1665911320354069 au T =  2338.02 K dt =         20 CI:   2
  Root chosen for geometry opt   1

  Gnuplot:           0.9999999516568145           0.0000000483431856        -302.8816199416536392        -302.6798079873321967        -302.8816199416536392
  **
  **
  **
  A surface hopping is not allowed
  **
  At state:   1


  &surface hopping information
-------------------------------------------------------

    Random number:             0.23205863
    Accumulated probability:   0.00000002
    state mult  level   probability 
    1     1     1       0.00000000
    2     1     2       0.00000002

    
-------------------------------------------------------

  
  &error iter 1999      
-------------------------------------------------------
  Energy   MaxStDev:          0.0000    
  Gradient MaxStDev:          0.0000    
  Nac      MaxStDev:          0.0000    
  Soc      MaxStDev:          0.0000    
-------------------------------------------------------

  Iter:     2000  Ekin =           0.1599019680064388 au T =  2244.14 K dt =         20 CI:   2
  Root chosen for geometry opt   1

  Gnuplot:           0.9999999352608668           0.0000000647391320        -302.8748553386078015        -302.6755206363901607        -302.8748553386078015
  **
  **
  **
  A surface hopping is not allowed
  **
  At state:   1


  &surface hopping information
-------------------------------------------------------

    Random number:             0.02354602
    Accumulated probability:   0.00000002
    state mult  level   probability 
    1     1     1       0.00000000
    2     1     2       0.00000002

    
-------------------------------------------------------

  
  &error iter 2000      
-------------------------------------------------------
  Energy   MaxStDev:          0.0000    
  Gradient MaxStDev:          0.0000    
  Nac      MaxStDev:          0.0000    
  Soc      MaxStDev:          0.0000    
-------------------------------------------------------


Nonadiabatic Molecular Dynamics End:  2026-02-25 10:53:38 Total:     0 days     0 hours     6 minutes    41 seconds
