Nonadiabatic Molecular Dynamics Start:  2026-02-25 10:46:49


  -------------------------------------------------------------------
                              /\
   |\    /|                  /++\
   ||\  /||                 /++++\
   || \/ || ||             /++++++\
   ||    || ||            /PyRAI2MD\
   ||    || ||           /++++++++++\                    __
            ||          /++++++++++++\    |\ |  /\  |\/| | \
            ||__ __    *==============*   | \| /--\ |  | |_/

                          Python Rapid
                     Artificial Intelligence
                  Ab Initio Molecular Dynamics



                      Author @Jingbai Li
                      
                      
    2022 – present   Hoffmann Institute of Advanced Materials
                     Shenzhen Polytechnic, Shenzhen, China    
                                
    2019 – 2022      Department of Chemistry and Chemical Biology
                     Northeastern University, Boston, USA

                          version:   2.5.1

  With contributions from (in alphabetic order):
    Jingbai Li     - Fewest switches surface hopping
                     Zhu-Nakamura surface hopping
                     Velocity Verlet
                     OpenMolcas interface
                     OpenMolcas/Tinker interface
                     BAGEL interface
                     ORCA interface
                     OpenQP interface
                     GFN-xTB interface
                     Adaptive sampling
                     Grid search
                     Multilayer ONIOM (QM:QM' and QM:QM':MM)
                     Periodic boundary condition
                     Wall potential
                     QC/ML hybrid NAMD
                     Excited-State Neural Network Potentials (ESNNP)

    Patrick Reiser - Fully connected neural networks (pyNNsMD)
                     SchNet (pyNNsMD)

  Special acknowledgement to:
    Steven A. Lopez            - Project co-founder
    Pascal Friederich          - Project co-founder




  &control
-------------------------------------------------------
  Title:                      dbh-15    
  NPROCS for ML:              1         
  NPROCS for QC:              1         
  NPROCS for Multiscale:      1          
  Seed:                       1         
  Job: 	                      md        
  QM:          	       	      nequip    
  Ab initio:                  molcas    
-------------------------------------------------------

        
  &molecule
-------------------------------------------------------
  States:                     [2]       
  Spin:                       [0]       
  Interstates:                [[1, 2]]  
  QMMM keyfile:               None      
  QMMM xyzfile:               Input     
  High level region:          []         ...
  Middel level region:        []         ...
  Boundary:                   []         ...
  Embedding charges:          False     
  Reading charge:             False     
  Frozen atoms:               []        
  Constrained atoms:          []        
  Restrained bonds:           []        
  Restrained angles:          []        
  Restrained dihedrals:       []        
  Restrained bond value:      []        
  Restrained angle value:     []        
  Restrained dihedral value:  []        
  Bond potential scale:       10.0      
  Angle potential scale:      0.005     
  Dihedral potential scale:   1e-06     
  External potential shape:   ['ellipsoid']
  External potential radius:  []        
  External potential factor:  [40]      
  External potential scale:   [1.0]       
  Compress potential volume:  []        
  Potential center:           []        
  Potential center type:      xyz       
  Constrained groups          []        
  Track geometry type:        None      
  Track indices:              []        
  Track threshold:            []        
  Track stop task:            0         
  Lattice vectors:            []        
  Lattice constant:           []        
  Periodic boundary condition []        
-------------------------------------------------------

        
  &initial condition
-------------------------------------------------------
  Generate initial condition: 0         
  Number:                     5000      
  Method:                     wigner     
  Format:                     molden    
-------------------------------------------------------

        
  &md
-------------------------------------------------------
  Initial state:              2         
  Initialize random velocity  0         
  Temperature (K):            300       
  Step:                       2000      
  Dt (au):                    20.67     
  Only active state grad      0         
  Surface hopping:            fssh      
  NAC type:                   nac       
  Phase correction            1         
  Population reset            0         
  Substep:                    20        
  Integrate probability       0         
  Decoherence:                0.1       
  Adjust velocity:            2         
  Reflect velocity:           1         
  Maxhop:                     10        
  IC hopping gap threshold    0.5       
  ISC hopping gap threshold   0.5       
  Thermodynamic:              off       
  Thermodynamic delay:        200       
  Print level:                0         
  Direct output:              2000      
  Buffer output:              0         
  Record MD data:             1         
  Record MD steps:            0         
  Checkpoint steps:           1          
  Restart function:           0         
  Additional steps:           0         
-------------------------------------------------------

        
  &md velocity control
-------------------------------------------------------
  Excess kinetic energy       0         
  Scale kinetic energy        1         
  Target kinetic energy       0         
  Gradient descent path       0         
  Reset velocity:             0         
  Reset step:                 0         
-------------------------------------------------------

        
  &nequip
-------------------------------------------------------
  Train data:                 None      
  Prediction data:            None      
  Train mode:                 training  
  Silent mode:                1         
  Data splits:                10        
  NN EG type:                 1         
  NN NAC type:                0         
  NN SOC type:                0         
  Multiscale:                 []        
  Shuffle data:               False     
  EG unit:                    si        
  NAC unit:                   si        
  SOC unit:                   cm-1
  Select EG output:           []        
  Select NAC output:          []        
  Select SOC output:          []          
  Data permutation            No        
  Elements                              
-------------------------------------------------------

        

  NequIP-NAC (Energy + Gradient + NAC)

  &hyperparameters            Energy+Gradient      Nonadiabatic         Spin-orbit
----------------------------------------------------------------------------------------------
  Model type:                 NequIPeg            NequIPnac           n/a          
  Model path:                 dbh-15.nequip.pth    dbh-15.nequip.pth    n/a                 
  GPU:                        1                    1                    n/a                 
  Chemical symbols:           auto                 auto                 n/a                 
----------------------------------------------------------------------------------------------
        


 *---------------------------------------------------*
 |                                                   |
 |          Nonadiabatic Molecular Dynamics          |
 |                                                   |
 *---------------------------------------------------*


  State order:         1   2
  Multiplicity:        1   1

  QMMM key:         None
  QMMM xyz          Input
  Active atoms:     15
  Inactive atoms:   0
  Link atoms:       0
  Highlevel atoms:  15
  Midlevel atoms:   0
  Lowlevel atoms:   0
  
  Lattice vector:   None
  Periodic X/Y/Z:   None

  Iter:        1  Ekin =           0.0652083455491056 au T =   915.16 K dt =         20 CI:   2
  Root chosen for geometry opt   2

  Gnuplot:           0.0000000000000000           1.0000000000000000        -302.8918889782617043        -302.7328498062324798        -302.7328498062324798
  **
  **
  **
  A surface hopping is not allowed
  **
  At state:   2


  &surface hopping information
-------------------------------------------------------
  No surface hopping is performed
-------------------------------------------------------

  
  &error iter 1         
-------------------------------------------------------
  Energy   MaxStDev:          0.0000    
  Gradient MaxStDev:          0.0000    
  Nac      MaxStDev:          0.0000    
  Soc      MaxStDev:          0.0000    
-------------------------------------------------------

  Iter:        2  Ekin =           0.0531297241192149 au T =   745.65 K dt =         20 CI:   2
  Root chosen for geometry opt   2

  Gnuplot:           0.0000000000000000           1.0000000000000000        -302.8763410251156643        -302.7203327184444106        -302.7203327184444106
  **
  **
  **
  A surface hopping is not allowed
  **
  At state:   2


  &surface hopping information
-------------------------------------------------------
  No surface hopping is performed
-------------------------------------------------------

  
  &error iter 2         
-------------------------------------------------------
  Energy   MaxStDev:          0.0000    
  Gradient MaxStDev:          0.0000    
  Nac      MaxStDev:          0.0000    
  Soc      MaxStDev:          0.0000    
-------------------------------------------------------

  Iter:        3  Ekin =           0.0522244192347235 au T =   732.94 K dt =         20 CI:   2
  Root chosen for geometry opt   2

  Gnuplot:           0.0000000000000000           1.0000000000000000        -302.8735309998091907        -302.7189367379426130        -302.7189367379426130
  **
  **
  **
  A surface hopping is not allowed
  **
  At state:   2


  &surface hopping information
-------------------------------------------------------
  No surface hopping is performed
-------------------------------------------------------

  
  &error iter 3         
-------------------------------------------------------
  Energy   MaxStDev:          0.0000    
  Gradient MaxStDev:          0.0000    
  Nac      MaxStDev:          0.0000    
  Soc      MaxStDev:          0.0000    
-------------------------------------------------------

  Iter:        4  Ekin =           0.0680174644856952 au T =   954.59 K dt =         20 CI:   2
  Root chosen for geometry opt   2

  Gnuplot:           0.0000006397299277           0.9999993602700670        -302.8908013286496157        -302.7353189731414886        -302.7353189731414886
  **
  **
  **
  A surface hopping is not allowed
  **
  At state:   2


  &surface hopping information
-------------------------------------------------------

    Random number:             0.53182757
    Accumulated probability:   0.00000004
    state mult  level   probability 
    1     1     1       0.00000004
    2     1     2       0.00000000

    
-------------------------------------------------------

  
  &error iter 4         
-------------------------------------------------------
  Energy   MaxStDev:          0.0000    
  Gradient MaxStDev:          0.0000    
  Nac      MaxStDev:          0.0000    
  Soc      MaxStDev:          0.0000    
-------------------------------------------------------

  Iter:        5  Ekin =           0.0930848429862373 au T =  1306.39 K dt =         20 CI:   2
  Root chosen for geometry opt   2

  Gnuplot:           0.0000001984376117           0.9999998015623817        -302.9187847787218857        -302.7613463191961500        -302.7613463191961500
  **
  **
  **
  A surface hopping is not allowed
  **
  At state:   2


  &surface hopping information
-------------------------------------------------------

    Random number:             0.50183666
    Accumulated probability:   0.00000006
    state mult  level   probability 
    1     1     1       0.00000006
    2     1     2       0.00000000

    
-------------------------------------------------------

  
  &error iter 5         
-------------------------------------------------------
  Energy   MaxStDev:          0.0000    
  Gradient MaxStDev:          0.0000    
  Nac      MaxStDev:          0.0000    
  Soc      MaxStDev:          0.0000    
-------------------------------------------------------

  Iter:        6  Ekin =           0.1136479727704954 au T =  1594.99 K dt =         20 CI:   2
  Root chosen for geometry opt   2

  Gnuplot:           0.0000005062275884           0.9999994937724068        -302.9415496112006849        -302.7822383236226642        -302.7822383236226642
  **
  **
  **
  A surface hopping is not allowed
  **
  At state:   2


  &surface hopping information
-------------------------------------------------------

    Random number:             0.51042235
    Accumulated probability:   0.00000012
    state mult  level   probability 
    1     1     1       0.00000012
    2     1     2       0.00000000

    
-------------------------------------------------------

  
  &error iter 6         
-------------------------------------------------------
  Energy   MaxStDev:          0.0000    
  Gradient MaxStDev:          0.0000    
  Nac      MaxStDev:          0.0000    
  Soc      MaxStDev:          0.0000    
-------------------------------------------------------

  Iter:        7  Ekin =           0.1219960010467467 au T =  1712.15 K dt =         20 CI:   2
  Root chosen for geometry opt   2

  Gnuplot:           0.0000007547859605           0.9999992452140418        -302.9503618187806069        -302.7905659716744253        -302.7905659716744253
  **
  **
  **
  A surface hopping is not allowed
  **
  At state:   2


  &surface hopping information
-------------------------------------------------------

    Random number:             0.69552952
    Accumulated probability:   0.00000018
    state mult  level   probability 
    1     1     1       0.00000018
    2     1     2       0.00000000

    
-------------------------------------------------------

  
  &error iter 7         
-------------------------------------------------------
  Energy   MaxStDev:          0.0000    
  Gradient MaxStDev:          0.0000    
  Nac      MaxStDev:          0.0000    
  Soc      MaxStDev:          0.0000    
-------------------------------------------------------

  Iter:        8  Ekin =           0.1182445384559504 au T =  1659.50 K dt =         20 CI:   2
  Root chosen for geometry opt   2

  Gnuplot:           0.0000006563134426           0.9999993436865680        -302.9464413861741718        -302.7863989615247533        -302.7863989615247533
  **
  **
  **
  A surface hopping is not allowed
  **
  At state:   2


  &surface hopping information
-------------------------------------------------------

    Random number:             0.34345600
    Accumulated probability:   0.00000012
    state mult  level   probability 
    1     1     1       0.00000012
    2     1     2       0.00000000

    
-------------------------------------------------------

  
  &error iter 8         
-------------------------------------------------------
  Energy   MaxStDev:          0.0000    
  Gradient MaxStDev:          0.0000    
  Nac      MaxStDev:          0.0000    
  Soc      MaxStDev:          0.0000    
-------------------------------------------------------

  Iter:        9  Ekin =           0.1077744375961229 au T =  1512.56 K dt =         20 CI:   2
  Root chosen for geometry opt   2

  Gnuplot:           0.0000002314847089           0.9999997685152948        -302.9359033035829611        -302.7753842490631655        -302.7753842490631655
  **
  **
  **
  A surface hopping is not allowed
  **
  At state:   2


  &surface hopping information
-------------------------------------------------------

    Random number:             0.98834544
    Accumulated probability:   0.00000002
    state mult  level   probability 
    1     1     1       0.00000002
    2     1     2       0.00000000

    
-------------------------------------------------------

  
  &error iter 9         
-------------------------------------------------------
  Energy   MaxStDev:          0.0000    
  Gradient MaxStDev:          0.0000    
  Nac      MaxStDev:          0.0000    
  Soc      MaxStDev:          0.0000    
-------------------------------------------------------

  Iter:       10  Ekin =           0.0972972063601133 au T =  1365.51 K dt =         20 CI:   2
  Root chosen for geometry opt   2

  Gnuplot:           0.0000000173092761           0.9999999826907242        -302.9251207100457464        -302.7646427047866382        -302.7646427047866382
  **
  **
  **
  A surface hopping is not allowed
  **
  At state:   2


  &surface hopping information
-------------------------------------------------------

    Random number:             0.54776359
    Accumulated probability:   0.00000000
    state mult  level   probability 
    1     1     1       0.00000000
    2     1     2       0.00000000

    
-------------------------------------------------------

  
  &error iter 10        
-------------------------------------------------------
  Energy   MaxStDev:          0.0000    
  Gradient MaxStDev:          0.0000    
  Nac      MaxStDev:          0.0000    
  Soc      MaxStDev:          0.0000    
-------------------------------------------------------

  Iter:       11  Ekin =           0.0902277985068675 au T =  1266.30 K dt =         20 CI:   2
  Root chosen for geometry opt   2

  Gnuplot:           0.0000000026109986           0.9999999973890015        -302.9172653293966846        -302.7576543033299572        -302.7576543033299572
  **
  **
  **
  A surface hopping is not allowed
  **
  At state:   2


  &surface hopping information
-------------------------------------------------------

    Random number:             0.44032788
    Accumulated probability:   0.00000000
    state mult  level   probability 
    1     1     1       0.00000000
    2     1     2       0.00000000

    
-------------------------------------------------------

  
  &error iter 11        
-------------------------------------------------------
  Energy   MaxStDev:          0.0000    
  Gradient MaxStDev:          0.0000    
  Nac      MaxStDev:          0.0000    
  Soc      MaxStDev:          0.0000    
-------------------------------------------------------

  Iter:       12  Ekin =           0.0858709601065644 au T =  1205.15 K dt =         20 CI:   2
  Root chosen for geometry opt   2

  Gnuplot:           0.0000000007859054           0.9999999992140947        -302.9118551199930494        -302.7534275364147902        -302.7534275364147902
  **
  **
  **
  A surface hopping is not allowed
  **
  At state:   2


  &surface hopping information
-------------------------------------------------------

    Random number:             0.42430687
    Accumulated probability:   0.00000000
    state mult  level   probability 
    1     1     1       0.00000000
    2     1     2       0.00000000

    
-------------------------------------------------------

  
  &error iter 12        
-------------------------------------------------------
  Energy   MaxStDev:          0.0000    
  Gradient MaxStDev:          0.0000    
  Nac      MaxStDev:          0.0000    
  Soc      MaxStDev:          0.0000    
-------------------------------------------------------

  Iter:       13  Ekin =           0.0824352823784100 au T =  1156.93 K dt =         20 CI:   2
  Root chosen for geometry opt   2

  Gnuplot:           0.0000000030436876           0.9999999969563125        -302.9072899503280496        -302.7500108786798592        -302.7500108786798592
  **
  **
  **
  A surface hopping is not allowed
  **
  At state:   2


  &surface hopping information
-------------------------------------------------------

    Random number:             0.12175436
    Accumulated probability:   0.00000000
    state mult  level   probability 
    1     1     1       0.00000000
    2     1     2       0.00000000

    
-------------------------------------------------------

  
  &error iter 13        
-------------------------------------------------------
  Energy   MaxStDev:          0.0000    
  Gradient MaxStDev:          0.0000    
  Nac      MaxStDev:          0.0000    
  Soc      MaxStDev:          0.0000    
-------------------------------------------------------

  Iter:       14  Ekin =           0.0792405195795549 au T =  1112.10 K dt =         20 CI:   2
  Root chosen for geometry opt   2

  Gnuplot:           0.0000000193525319           0.9999999806474680        -302.9028012691180152        -302.7467674781980804        -302.7467674781980804
  **
  **
  **
  A surface hopping is not allowed
  **
  At state:   2


  &surface hopping information
-------------------------------------------------------

    Random number:             0.18690374
    Accumulated probability:   0.00000000
    state mult  level   probability 
    1     1     1       0.00000000
    2     1     2       0.00000000

    
-------------------------------------------------------

  
  &error iter 14        
-------------------------------------------------------
  Energy   MaxStDev:          0.0000    
  Gradient MaxStDev:          0.0000    
  Nac      MaxStDev:          0.0000    
  Soc      MaxStDev:          0.0000    
-------------------------------------------------------

  Iter:       15  Ekin =           0.0766460236518777 au T =  1075.68 K dt =         20 CI:   2
  Root chosen for geometry opt   2

  Gnuplot:           0.0000000411645055           0.9999999588354953        -302.8987209237532738        -302.7441186283235766        -302.7441186283235766
  **
  **
  **
  A surface hopping is not allowed
  **
  At state:   2


  &surface hopping information
-------------------------------------------------------

    Random number:             0.62630934
    Accumulated probability:   0.00000001
    state mult  level   probability 
    1     1     1       0.00000001
    2     1     2       0.00000000

    
-------------------------------------------------------

  
  &error iter 15        
-------------------------------------------------------
  Energy   MaxStDev:          0.0000    
  Gradient MaxStDev:          0.0000    
  Nac      MaxStDev:          0.0000    
  Soc      MaxStDev:          0.0000    
-------------------------------------------------------

  Iter:       16  Ekin =           0.0753168290735902 au T =  1057.03 K dt =         20 CI:   2
  Root chosen for geometry opt   2

  Gnuplot:           0.0000000605160961           0.9999999394839065        -302.8958427108175897        -302.7427436028203260        -302.7427436028203260
  **
  **
  **
  A surface hopping is not allowed
  **
  At state:   2


  &surface hopping information
-------------------------------------------------------

    Random number:             0.26690581
    Accumulated probability:   0.00000001
    state mult  level   probability 
    1     1     1       0.00000001
    2     1     2       0.00000000

    
-------------------------------------------------------

  
  &error iter 16        
-------------------------------------------------------
  Energy   MaxStDev:          0.0000    
  Gradient MaxStDev:          0.0000    
  Nac      MaxStDev:          0.0000    
  Soc      MaxStDev:          0.0000    
-------------------------------------------------------

  Iter:       17  Ekin =           0.0758219621433414 au T =  1064.12 K dt =         20 CI:   2
  Root chosen for geometry opt   2

  Gnuplot:           0.0000000894795249           0.9999999105204722        -302.8949269361613119        -302.7432256299628648        -302.7432256299628648
  **
  **
  **
  A surface hopping is not allowed
  **
  At state:   2


  &surface hopping information
-------------------------------------------------------

    Random number:             0.02619660
    Accumulated probability:   0.00000002
    state mult  level   probability 
    1     1     1       0.00000002
    2     1     2       0.00000000

    
-------------------------------------------------------

  
  &error iter 17        
-------------------------------------------------------
  Energy   MaxStDev:          0.0000    
  Gradient MaxStDev:          0.0000    
  Nac      MaxStDev:          0.0000    
  Soc      MaxStDev:          0.0000    
-------------------------------------------------------

  Iter:       18  Ekin =           0.0784255963817593 au T =  1100.66 K dt =         20 CI:   2
  Root chosen for geometry opt   2

  Gnuplot:           0.0000001158950586           0.9999998841049447        -302.8964369037973938        -302.7458370518677953        -302.7458370518677953
  **
  **
  **
  A surface hopping is not allowed
  **
  At state:   2


  &surface hopping information
-------------------------------------------------------

    Random number:             0.59648693
    Accumulated probability:   0.00000002
    state mult  level   probability 
    1     1     1       0.00000002
    2     1     2       0.00000000

    
-------------------------------------------------------

  
  &error iter 18        
-------------------------------------------------------
  Energy   MaxStDev:          0.0000    
  Gradient MaxStDev:          0.0000    
  Nac      MaxStDev:          0.0000    
  Soc      MaxStDev:          0.0000    
-------------------------------------------------------

  Iter:       19  Ekin =           0.0829043724694100 au T =  1163.52 K dt =         20 CI:   2
  Root chosen for geometry opt   2

  Gnuplot:           0.0000001254070915           0.9999998745929020        -302.9002946076681724        -302.7503934279586133        -302.7503934279586133
  **
  **
  **
  A surface hopping is not allowed
  **
  At state:   2


  &surface hopping information
-------------------------------------------------------

    Random number:             0.50056142
    Accumulated probability:   0.00000002
    state mult  level   probability 
    1     1     1       0.00000002
    2     1     2       0.00000000

    
-------------------------------------------------------

  
  &error iter 19        
-------------------------------------------------------
  Energy   MaxStDev:          0.0000    
  Gradient MaxStDev:          0.0000    
  Nac      MaxStDev:          0.0000    
  Soc      MaxStDev:          0.0000    
-------------------------------------------------------

  Iter:       20  Ekin =           0.0881867866486991 au T =  1237.65 K dt =         20 CI:   2
  Root chosen for geometry opt   2

  Gnuplot:           0.0000001573065985           0.9999998426933985        -302.9054854438372217        -302.7558419502109359        -302.7558419502109359
  **
  **
  **
  A surface hopping is not allowed
  **
  At state:   2


  &surface hopping information
-------------------------------------------------------

    Random number:             0.24221981
    Accumulated probability:   0.00000003
    state mult  level   probability 
    1     1     1       0.00000003
    2     1     2       0.00000000

    
-------------------------------------------------------

  
  &error iter 20        
-------------------------------------------------------
  Energy   MaxStDev:          0.0000    
  Gradient MaxStDev:          0.0000    
  Nac      MaxStDev:          0.0000    
  Soc      MaxStDev:          0.0000    
-------------------------------------------------------

  Iter:       21  Ekin =           0.0921639123533647 au T =  1293.47 K dt =         20 CI:   2
  Root chosen for geometry opt   2

  Gnuplot:           0.0000002076380885           0.9999997923619048        -302.9100734579853338        -302.7600383794539312        -302.7600383794539312
  **
  **
  **
  A surface hopping is not allowed
  **
  At state:   2


  &surface hopping information
-------------------------------------------------------

    Random number:             0.36418745
    Accumulated probability:   0.00000004
    state mult  level   probability 
    1     1     1       0.00000004
    2     1     2       0.00000000

    
-------------------------------------------------------

  
  &error iter 21        
-------------------------------------------------------
  Energy   MaxStDev:          0.0000    
  Gradient MaxStDev:          0.0000    
  Nac      MaxStDev:          0.0000    
  Soc      MaxStDev:          0.0000    
-------------------------------------------------------

  Iter:       22  Ekin =           0.0921945758779035 au T =  1293.90 K dt =         20 CI:   2
  Root chosen for geometry opt   2

  Gnuplot:           0.0000002030472950           0.9999997969527072        -302.9111008727010130        -302.7602344112734158        -302.7602344112734158
  **
  **
  **
  A surface hopping is not allowed
  **
  At state:   2


  &surface hopping information
-------------------------------------------------------

    Random number:             0.23747823
    Accumulated probability:   0.00000003
    state mult  level   probability 
    1     1     1       0.00000003
    2     1     2       0.00000000

    
-------------------------------------------------------

  
  &error iter 22        
-------------------------------------------------------
  Energy   MaxStDev:          0.0000    
  Gradient MaxStDev:          0.0000    
  Nac      MaxStDev:          0.0000    
  Soc      MaxStDev:          0.0000    
-------------------------------------------------------

  Iter:       23  Ekin =           0.0866022595002614 au T =  1215.42 K dt =         20 CI:   2
  Root chosen for geometry opt   2

  Gnuplot:           0.0000001429049811           0.9999998570950197        -302.9059284979694553        -302.7546412294752827        -302.7546412294752827
  **
  **
  **
  A surface hopping is not allowed
  **
  At state:   2


  &surface hopping information
-------------------------------------------------------

    Random number:             0.84575248
    Accumulated probability:   0.00000002
    state mult  level   probability 
    1     1     1       0.00000002
    2     1     2       0.00000000

    
-------------------------------------------------------

  
  &error iter 23        
-------------------------------------------------------
  Energy   MaxStDev:          0.0000    
  Gradient MaxStDev:          0.0000    
  Nac      MaxStDev:          0.0000    
  Soc      MaxStDev:          0.0000    
-------------------------------------------------------

  Iter:       24  Ekin =           0.0763328038775687 au T =  1071.29 K dt =         20 CI:   2
  Root chosen for geometry opt   2

  Gnuplot:           0.0000001417672157           0.9999998582327834        -302.8945601036908215        -302.7441640429045719        -302.7441640429045719
  **
  **
  **
  A surface hopping is not allowed
  **
  At state:   2


  &surface hopping information
-------------------------------------------------------

    Random number:             0.86335337
    Accumulated probability:   0.00000002
    state mult  level   probability 
    1     1     1       0.00000002
    2     1     2       0.00000000

    
-------------------------------------------------------

  
  &error iter 24        
-------------------------------------------------------
  Energy   MaxStDev:          0.0000    
  Gradient MaxStDev:          0.0000    
  Nac      MaxStDev:          0.0000    
  Soc      MaxStDev:          0.0000    
-------------------------------------------------------

  Iter:       25  Ekin =           0.0655956613286935 au T =   920.60 K dt =         20 CI:   2
  Root chosen for geometry opt   2

  Gnuplot:           0.0000002658832555           0.9999997341167557        -302.8814278938987741        -302.7330137555794067        -302.7330137555794067
  **
  **
  **
  A surface hopping is not allowed
  **
  At state:   2


  &surface hopping information
-------------------------------------------------------

    Random number:             0.44169739
    Accumulated probability:   0.00000005
    state mult  level   probability 
    1     1     1       0.00000005
    2     1     2       0.00000000

    
-------------------------------------------------------

  
  &error iter 25        
-------------------------------------------------------
  Energy   MaxStDev:          0.0000    
  Gradient MaxStDev:          0.0000    
  Nac      MaxStDev:          0.0000    
  Soc      MaxStDev:          0.0000    
-------------------------------------------------------

  Iter:       26  Ekin =           0.0615201752566415 au T =   863.40 K dt =         20 CI:   2
  Root chosen for geometry opt   2

  Gnuplot:           0.0000001684338476           0.9999998315661571        -302.8764363434057714        -302.7285186877605838        -302.7285186877605838
  **
  **
  **
  A surface hopping is not allowed
  **
  At state:   2


  &surface hopping information
-------------------------------------------------------

    Random number:             0.92455190
    Accumulated probability:   0.00000001
    state mult  level   probability 
    1     1     1       0.00000001
    2     1     2       0.00000000

    
-------------------------------------------------------

  
  &error iter 26        
-------------------------------------------------------
  Energy   MaxStDev:          0.0000    
  Gradient MaxStDev:          0.0000    
  Nac      MaxStDev:          0.0000    
  Soc      MaxStDev:          0.0000    
-------------------------------------------------------

  Iter:       27  Ekin =           0.0693369702300345 au T =   973.11 K dt =         20 CI:   2
  Root chosen for geometry opt   2

  Gnuplot:           0.0000000789057461           0.9999999210942505        -302.8862439131506221        -302.7367004875271164        -302.7367004875271164
  **
  **
  **
  A surface hopping is not allowed
  **
  At state:   2


  &surface hopping information
-------------------------------------------------------

    Random number:             0.23008996
    Accumulated probability:   0.00000001
    state mult  level   probability 
    1     1     1       0.00000001
    2     1     2       0.00000000

    
-------------------------------------------------------

  
  &error iter 27        
-------------------------------------------------------
  Energy   MaxStDev:          0.0000    
  Gradient MaxStDev:          0.0000    
  Nac      MaxStDev:          0.0000    
  Soc      MaxStDev:          0.0000    
-------------------------------------------------------

  Iter:       28  Ekin =           0.0845195418711493 au T =  1186.19 K dt =         20 CI:   2
  Root chosen for geometry opt   2

  Gnuplot:           0.0000002196140030           0.9999997803859912        -302.9044679753749847        -302.7526131708397656        -302.7526131708397656
  **
  **
  **
  A surface hopping is not allowed
  **
  At state:   2


  &surface hopping information
-------------------------------------------------------

    Random number:             0.74461544
    Accumulated probability:   0.00000005
    state mult  level   probability 
    1     1     1       0.00000005
    2     1     2       0.00000000

    
-------------------------------------------------------

  
  &error iter 28        
-------------------------------------------------------
  Energy   MaxStDev:          0.0000    
  Gradient MaxStDev:          0.0000    
  Nac      MaxStDev:          0.0000    
  Soc      MaxStDev:          0.0000    
-------------------------------------------------------

  Iter:       29  Ekin =           0.0970014430212904 au T =  1361.36 K dt =         20 CI:   2
  Root chosen for geometry opt   2

  Gnuplot:           0.0000001716634828           0.9999998283365130        -302.9188030661893549        -302.7654348015392998        -302.7654348015392998
  **
  **
  **
  A surface hopping is not allowed
  **
  At state:   2


  &surface hopping information
-------------------------------------------------------

    Random number:             0.47777805
    Accumulated probability:   0.00000002
    state mult  level   probability 
    1     1     1       0.00000002
    2     1     2       0.00000000

    
-------------------------------------------------------

  
  &error iter 29        
-------------------------------------------------------
  Energy   MaxStDev:          0.0000    
  Gradient MaxStDev:          0.0000    
  Nac      MaxStDev:          0.0000    
  Soc      MaxStDev:          0.0000    
-------------------------------------------------------

  Iter:       30  Ekin =           0.1016384041148497 au T =  1426.44 K dt =         20 CI:   2
  Root chosen for geometry opt   2

  Gnuplot:           0.0000002480841015           0.9999997519159081        -302.9237748270961674        -302.7697731370129759        -302.7697731370129759
  **
  **
  **
  A surface hopping is not allowed
  **
  At state:   2


  &surface hopping information
-------------------------------------------------------

    Random number:             0.67112660
    Accumulated probability:   0.00000006
    state mult  level   probability 
    1     1     1       0.00000006
    2     1     2       0.00000000

    
-------------------------------------------------------

  
  &error iter 30        
-------------------------------------------------------
  Energy   MaxStDev:          0.0000    
  Gradient MaxStDev:          0.0000    
  Nac      MaxStDev:          0.0000    
  Soc      MaxStDev:          0.0000    
-------------------------------------------------------

  Iter:       31  Ekin =           0.1005377695645321 au T =  1410.99 K dt =         20 CI:   2
  Root chosen for geometry opt   2

  Gnuplot:           0.0000005254393747           0.9999994745606386        -302.9222741608667206        -302.7683819114655535        -302.7683819114655535
  **
  **
  **
  A surface hopping is not allowed
  **
  At state:   2


  &surface hopping information
-------------------------------------------------------

    Random number:             0.24862377
    Accumulated probability:   0.00000012
    state mult  level   probability 
    1     1     1       0.00000012
    2     1     2       0.00000000

    
-------------------------------------------------------

  
  &error iter 31        
-------------------------------------------------------
  Energy   MaxStDev:          0.0000    
  Gradient MaxStDev:          0.0000    
  Nac      MaxStDev:          0.0000    
  Soc      MaxStDev:          0.0000    
-------------------------------------------------------

  Iter:       32  Ekin =           0.0970215305630543 au T =  1361.64 K dt =         20 CI:   2
  Root chosen for geometry opt   2

  Gnuplot:           0.0000006557386001           0.9999993442614254        -302.9184880347740432        -302.7648048420575151        -302.7648048420575151
  **
  **
  **
  A surface hopping is not allowed
  **
  At state:   2


  &surface hopping information
-------------------------------------------------------

    Random number:             0.95631200
    Accumulated probability:   0.00000012
    state mult  level   probability 
    1     1     1       0.00000012
    2     1     2       0.00000000

    
-------------------------------------------------------

  
  &error iter 32        
-------------------------------------------------------
  Energy   MaxStDev:          0.0000    
  Gradient MaxStDev:          0.0000    
  Nac      MaxStDev:          0.0000    
  Soc      MaxStDev:          0.0000    
-------------------------------------------------------

  Iter:       33  Ekin =           0.0920475564237658 au T =  1291.84 K dt =         20 CI:   2
  Root chosen for geometry opt   2

  Gnuplot:           0.0000006257986140           0.9999993742013658        -302.9139862641066543        -302.7597601990671023        -302.7597601990671023
  **
  **
  **
  A surface hopping is not allowed
  **
  At state:   2


  &surface hopping information
-------------------------------------------------------

    Random number:             0.03191799
    Accumulated probability:   0.00000011
    state mult  level   probability 
    1     1     1       0.00000011
    2     1     2       0.00000000

    
-------------------------------------------------------

  
  &error iter 33        
-------------------------------------------------------
  Energy   MaxStDev:          0.0000    
  Gradient MaxStDev:          0.0000    
  Nac      MaxStDev:          0.0000    
  Soc      MaxStDev:          0.0000    
-------------------------------------------------------

  Iter:       34  Ekin =           0.0859893203661289 au T =  1206.81 K dt =         20 CI:   2
  Root chosen for geometry opt   2

  Gnuplot:           0.0000004950662636           0.9999995049337258        -302.9088959611128757        -302.7535912489142902        -302.7535912489142902
  **
  **
  **
  A surface hopping is not allowed
  **
  At state:   2


  &surface hopping information
-------------------------------------------------------

    Random number:             0.16200083
    Accumulated probability:   0.00000007
    state mult  level   probability 
    1     1     1       0.00000007
    2     1     2       0.00000000

    
-------------------------------------------------------

  
  &error iter 34        
-------------------------------------------------------
  Energy   MaxStDev:          0.0000    
  Gradient MaxStDev:          0.0000    
  Nac      MaxStDev:          0.0000    
  Soc      MaxStDev:          0.0000    
-------------------------------------------------------

  Iter:       35  Ekin =           0.0799351186725502 au T =  1121.85 K dt =         20 CI:   2
  Root chosen for geometry opt   2

  Gnuplot:           0.0000004799743010           0.9999995200257104        -302.9034666476915731        -302.7474341814696004        -302.7474341814696004
  **
  **
  **
  A surface hopping is not allowed
  **
  At state:   2


  &surface hopping information
-------------------------------------------------------

    Random number:             0.19600947
    Accumulated probability:   0.00000008
    state mult  level   probability 
    1     1     1       0.00000008
    2     1     2       0.00000000

    
-------------------------------------------------------

  
  &error iter 35        
-------------------------------------------------------
  Energy   MaxStDev:          0.0000    
  Gradient MaxStDev:          0.0000    
  Nac      MaxStDev:          0.0000    
  Soc      MaxStDev:          0.0000    
-------------------------------------------------------

  Iter:       36  Ekin =           0.0750563459969109 au T =  1053.37 K dt =         20 CI:   2
  Root chosen for geometry opt   2

  Gnuplot:           0.0000005310135792           0.9999994689864025        -302.8986987704768694        -302.7425331256636127        -302.7425331256636127
  **
  **
  **
  A surface hopping is not allowed
  **
  At state:   2


  &surface hopping information
-------------------------------------------------------

    Random number:             0.81031483
    Accumulated probability:   0.00000009
    state mult  level   probability 
    1     1     1       0.00000009
    2     1     2       0.00000000

    
-------------------------------------------------------

  
  &error iter 36        
-------------------------------------------------------
  Energy   MaxStDev:          0.0000    
  Gradient MaxStDev:          0.0000    
  Nac      MaxStDev:          0.0000    
  Soc      MaxStDev:          0.0000    
-------------------------------------------------------

  Iter:       37  Ekin =           0.0716975006486081 au T =  1006.24 K dt =         20 CI:   2
  Root chosen for geometry opt   2

  Gnuplot:           0.0000004040702204           0.9999995959297792        -302.8952768606552581        -302.7391919297788263        -302.7391919297788263
  **
  **
  **
  A surface hopping is not allowed
  **
  At state:   2


  &surface hopping information
-------------------------------------------------------

    Random number:             0.44046199
    Accumulated probability:   0.00000005
    state mult  level   probability 
    1     1     1       0.00000005
    2     1     2       0.00000000

    
-------------------------------------------------------

  
  &error iter 37        
-------------------------------------------------------
  Energy   MaxStDev:          0.0000    
  Gradient MaxStDev:          0.0000    
  Nac      MaxStDev:          0.0000    
  Soc      MaxStDev:          0.0000    
-------------------------------------------------------

  Iter:       38  Ekin =           0.0696952501695936 au T =   978.13 K dt =         20 CI:   2
  Root chosen for geometry opt   2

  Gnuplot:           0.0000002867164821           0.9999997132835290        -302.8931557460555837        -302.7371719574188091        -302.7371719574188091
  **
  **
  **
  A surface hopping is not allowed
  **
  At state:   2


  &surface hopping information
-------------------------------------------------------

    Random number:             0.84750229
    Accumulated probability:   0.00000004
    state mult  level   probability 
    1     1     1       0.00000004
    2     1     2       0.00000000

    
-------------------------------------------------------

  
  &error iter 38        
-------------------------------------------------------
  Energy   MaxStDev:          0.0000    
  Gradient MaxStDev:          0.0000    
  Nac      MaxStDev:          0.0000    
  Soc      MaxStDev:          0.0000    
-------------------------------------------------------

  Iter:       39  Ekin =           0.0692884493575979 au T =   972.43 K dt =         20 CI:   2
  Root chosen for geometry opt   2

  Gnuplot:           0.0000003840952397           0.9999996159047555        -302.8925605727137622        -302.7367033817274660        -302.7367033817274660
  **
  **
  **
  A surface hopping is not allowed
  **
  At state:   2


  &surface hopping information
-------------------------------------------------------

    Random number:             0.02734078
    Accumulated probability:   0.00000007
    state mult  level   probability 
    1     1     1       0.00000007
    2     1     2       0.00000000

    
-------------------------------------------------------

  
  &error iter 39        
-------------------------------------------------------
  Energy   MaxStDev:          0.0000    
  Gradient MaxStDev:          0.0000    
  Nac      MaxStDev:          0.0000    
  Soc      MaxStDev:          0.0000    
-------------------------------------------------------

  Iter:       40  Ekin =           0.0713320958708110 au T =  1001.11 K dt =         20 CI:   2
  Root chosen for geometry opt   2

  Gnuplot:           0.0000007149042300           0.9999992850957824        -302.8943874453054264        -302.7386890979733494        -302.7386890979733494
  **
  **
  **
  A surface hopping is not allowed
  **
  At state:   2


  &surface hopping information
-------------------------------------------------------

    Random number:             0.52388066
    Accumulated probability:   0.00000014
    state mult  level   probability 
    1     1     1       0.00000014
    2     1     2       0.00000000

    
-------------------------------------------------------

  
  &error iter 40        
-------------------------------------------------------
  Energy   MaxStDev:          0.0000    
  Gradient MaxStDev:          0.0000    
  Nac      MaxStDev:          0.0000    
  Soc      MaxStDev:          0.0000    
-------------------------------------------------------

  Iter:       41  Ekin =           0.0766113704688569 au T =  1075.20 K dt =         20 CI:   2
  Root chosen for geometry opt   2

  Gnuplot:           0.0000010976693383           0.9999989023306171        -302.8994981578239276        -302.7439897397706545        -302.7439897397706545
  **
  **
  **
  A surface hopping is not allowed
  **
  At state:   2


  &surface hopping information
-------------------------------------------------------

    Random number:             0.83538866
    Accumulated probability:   0.00000020
    state mult  level   probability 
    1     1     1       0.00000020
    2     1     2       0.00000000

    
-------------------------------------------------------

  
  &error iter 41        
-------------------------------------------------------
  Energy   MaxStDev:          0.0000    
  Gradient MaxStDev:          0.0000    
  Nac      MaxStDev:          0.0000    
  Soc      MaxStDev:          0.0000    
-------------------------------------------------------

  Iter:       42  Ekin =           0.0848672675446413 au T =  1191.07 K dt =         20 CI:   2
  Root chosen for geometry opt   2

  Gnuplot:           0.0000012180312534           0.9999987819687703        -302.9077475835355244        -302.7523716282977944        -302.7523716282977944
  **
  **
  **
  A surface hopping is not allowed
  **
  At state:   2


  &surface hopping information
-------------------------------------------------------

    Random number:             0.83534312
    Accumulated probability:   0.00000021
    state mult  level   probability 
    1     1     1       0.00000021
    2     1     2       0.00000000

    
-------------------------------------------------------

  
  &error iter 42        
-------------------------------------------------------
  Energy   MaxStDev:          0.0000    
  Gradient MaxStDev:          0.0000    
  Nac      MaxStDev:          0.0000    
  Soc      MaxStDev:          0.0000    
-------------------------------------------------------

  Iter:       43  Ekin =           0.0942697951017106 au T =  1323.02 K dt =         20 CI:   2
  Root chosen for geometry opt   2

  Gnuplot:           0.0000010958852767           0.9999989041147046        -302.9174258486938243        -302.7620162921722340        -302.7620162921722340
  **
  **
  **
  A surface hopping is not allowed
  **
  At state:   2


  &surface hopping information
-------------------------------------------------------

    Random number:             0.31050873
    Accumulated probability:   0.00000019
    state mult  level   probability 
    1     1     1       0.00000019
    2     1     2       0.00000000

    
-------------------------------------------------------

  
  &error iter 43        
-------------------------------------------------------
  Energy   MaxStDev:          0.0000    
  Gradient MaxStDev:          0.0000    
  Nac      MaxStDev:          0.0000    
  Soc      MaxStDev:          0.0000    
-------------------------------------------------------

  Iter:       44  Ekin =           0.1014414527149068 au T =  1423.68 K dt =         20 CI:   2
  Root chosen for geometry opt   2

  Gnuplot:           0.0000010880704811           0.9999989119295378        -302.9248999704915946        -302.7694934665624942        -302.7694934665624942
  **
  **
  **
  A surface hopping is not allowed
  **
  At state:   2


  &surface hopping information
-------------------------------------------------------

    Random number:             0.36726555
    Accumulated probability:   0.00000021
    state mult  level   probability 
    1     1     1       0.00000021
    2     1     2       0.00000000

    
-------------------------------------------------------

  
  &error iter 44        
-------------------------------------------------------
  Energy   MaxStDev:          0.0000    
  Gradient MaxStDev:          0.0000    
  Nac      MaxStDev:          0.0000    
  Soc      MaxStDev:          0.0000    
-------------------------------------------------------

  Iter:       45  Ekin =           0.1023907999558008 au T =  1437.00 K dt =         20 CI:   2
  Root chosen for geometry opt   2

  Gnuplot:           0.0000010783874179           0.9999989216125869        -302.9257371903813691        -302.7707157337579247        -302.7707157337579247
  **
  **
  **
  A surface hopping is not allowed
  **
  At state:   2


  &surface hopping information
-------------------------------------------------------

    Random number:             0.49291372
    Accumulated probability:   0.00000020
    state mult  level   probability 
    1     1     1       0.00000020
    2     1     2       0.00000000

    
-------------------------------------------------------

  
  &error iter 45        
-------------------------------------------------------
  Energy   MaxStDev:          0.0000    
  Gradient MaxStDev:          0.0000    
  Nac      MaxStDev:          0.0000    
  Soc      MaxStDev:          0.0000    
-------------------------------------------------------

  Iter:       46  Ekin =           0.0944112345793962 au T =  1325.01 K dt =         20 CI:   2
  Root chosen for geometry opt   2

  Gnuplot:           0.0000007454046064           0.9999992545953660        -302.9169359594474145        -302.7627036363292632        -302.7627036363292632
  **
  **
  **
  A surface hopping is not allowed
  **
  At state:   2


  &surface hopping information
-------------------------------------------------------

    Random number:             0.87132633
    Accumulated probability:   0.00000011
    state mult  level   probability 
    1     1     1       0.00000011
    2     1     2       0.00000000

    
-------------------------------------------------------

  
  &error iter 46        
-------------------------------------------------------
  Energy   MaxStDev:          0.0000    
  Gradient MaxStDev:          0.0000    
  Nac      MaxStDev:          0.0000    
  Soc      MaxStDev:          0.0000    
-------------------------------------------------------

  Iter:       47  Ekin =           0.0800912583349829 au T =  1124.04 K dt =         20 CI:   2
  Root chosen for geometry opt   2

  Gnuplot:           0.0000002078788922           0.9999997921211019        -302.9007224107851926        -302.7478096735890176        -302.7478096735890176
  **
  **
  **
  A surface hopping is not allowed
  **
  At state:   2


  &surface hopping information
-------------------------------------------------------

    Random number:             0.75112122
    Accumulated probability:   0.00000001
    state mult  level   probability 
    1     1     1       0.00000001
    2     1     2       0.00000000

    
-------------------------------------------------------

  
  &error iter 47        
-------------------------------------------------------
  Energy   MaxStDev:          0.0000    
  Gradient MaxStDev:          0.0000    
  Nac      MaxStDev:          0.0000    
  Soc      MaxStDev:          0.0000    
-------------------------------------------------------

  Iter:       48  Ekin =           0.0679264074886405 au T =   953.31 K dt =         20 CI:   2
  Root chosen for geometry opt   2

  Gnuplot:           0.0000000205584032           0.9999999794415970        -302.8860017844802996        -302.7350895192920461        -302.7350895192920461
  **
  **
  **
  A surface hopping is not allowed
  **
  At state:   2


  &surface hopping information
-------------------------------------------------------

    Random number:             0.06073962
    Accumulated probability:   0.00000000
    state mult  level   probability 
    1     1     1       0.00000000
    2     1     2       0.00000000

    
-------------------------------------------------------

  
  &error iter 48        
-------------------------------------------------------
  Energy   MaxStDev:          0.0000    
  Gradient MaxStDev:          0.0000    
  Nac      MaxStDev:          0.0000    
  Soc      MaxStDev:          0.0000    
-------------------------------------------------------

  Iter:       49  Ekin =           0.0663729550583998 au T =   931.51 K dt =         20 CI:   2
  Root chosen for geometry opt   2

  Gnuplot:           0.0000000202728102           0.9999999797271890        -302.8839297044406180        -302.7335558703835545        -302.7335558703835545
  **
  **
  **
  A surface hopping is not allowed
  **
  At state:   2


  &surface hopping information
-------------------------------------------------------

    Random number:             0.49868822
    Accumulated probability:   0.00000000
    state mult  level   probability 
    1     1     1       0.00000000
    2     1     2       0.00000000

    
-------------------------------------------------------

  
  &error iter 49        
-------------------------------------------------------
  Energy   MaxStDev:          0.0000    
  Gradient MaxStDev:          0.0000    
  Nac      MaxStDev:          0.0000    
  Soc      MaxStDev:          0.0000    
-------------------------------------------------------

  Iter:       50  Ekin =           0.0751887864656448 au T =  1055.23 K dt =         20 CI:   2
  Root chosen for geometry opt   2

  Gnuplot:           0.0000000134973506           0.9999999865026492        -302.8940006246596681        -302.7430193718224132        -302.7430193718224132
  **
  **
  **
  A surface hopping is not allowed
  **
  At state:   2


  &surface hopping information
-------------------------------------------------------

    Random number:             0.16322003
    Accumulated probability:   0.00000000
    state mult  level   probability 
    1     1     1       0.00000000
    2     1     2       0.00000000

    
-------------------------------------------------------

  
  &error iter 50        
-------------------------------------------------------
  Energy   MaxStDev:          0.0000    
  Gradient MaxStDev:          0.0000    
  Nac      MaxStDev:          0.0000    
  Soc      MaxStDev:          0.0000    
-------------------------------------------------------

  Iter:       51  Ekin =           0.0855667968933663 au T =  1200.88 K dt =         20 CI:   2
  Root chosen for geometry opt   2

  Gnuplot:           0.0000000461674967           0.9999999538325035        -302.9049199188444845        -302.7538525517280164        -302.7538525517280164
  **
  **
  **
  A surface hopping is not allowed
  **
  At state:   2


  &surface hopping information
-------------------------------------------------------

    Random number:             0.63735676
    Accumulated probability:   0.00000001
    state mult  level   probability 
    1     1     1       0.00000001
    2     1     2       0.00000000

    
-------------------------------------------------------

  
  &error iter 51        
-------------------------------------------------------
  Energy   MaxStDev:          0.0000    
  Gradient MaxStDev:          0.0000    
  Nac      MaxStDev:          0.0000    
  Soc      MaxStDev:          0.0000    
-------------------------------------------------------

  Iter:       52  Ekin =           0.0907501758065044 au T =  1273.63 K dt =         20 CI:   2
  Root chosen for geometry opt   2

  Gnuplot:           0.0000000432301706           0.9999999567698303        -302.9096927401446351        -302.7588954032922857        -302.7588954032922857
  **
  **
  **
  A surface hopping is not allowed
  **
  At state:   2


  &surface hopping information
-------------------------------------------------------

    Random number:             0.82653016
    Accumulated probability:   0.00000001
    state mult  level   probability 
    1     1     1       0.00000001
    2     1     2       0.00000000

    
-------------------------------------------------------

  
  &error iter 52        
-------------------------------------------------------
  Energy   MaxStDev:          0.0000    
  Gradient MaxStDev:          0.0000    
  Nac      MaxStDev:          0.0000    
  Soc      MaxStDev:          0.0000    
-------------------------------------------------------

  Iter:       53  Ekin =           0.0907751305840886 au T =  1273.98 K dt =         20 CI:   2
  Root chosen for geometry opt   2

  Gnuplot:           0.0000000098010568           0.9999999901989431        -302.9093907794638767        -302.7586262942758140        -302.7586262942758140
  **
  **
  **
  A surface hopping is not allowed
  **
  At state:   2


  &surface hopping information
-------------------------------------------------------

    Random number:             0.29489470
    Accumulated probability:   0.00000000
    state mult  level   probability 
    1     1     1       0.00000000
    2     1     2       0.00000000

    
-------------------------------------------------------

  
  &error iter 53        
-------------------------------------------------------
  Energy   MaxStDev:          0.0000    
  Gradient MaxStDev:          0.0000    
  Nac      MaxStDev:          0.0000    
  Soc      MaxStDev:          0.0000    
-------------------------------------------------------

  Iter:       54  Ekin =           0.0887410880709054 au T =  1245.43 K dt =         20 CI:   2
  Root chosen for geometry opt   2

  Gnuplot:           0.0000000149207608           0.9999999850792385        -302.9077809890371782        -302.7564665754520092        -302.7564665754520092
  **
  **
  **
  A surface hopping is not allowed
  **
  At state:   2


  &surface hopping information
-------------------------------------------------------

    Random number:             0.39012530
    Accumulated probability:   0.00000000
    state mult  level   probability 
    1     1     1       0.00000000
    2     1     2       0.00000000

    
-------------------------------------------------------

  
  &error iter 54        
-------------------------------------------------------
  Energy   MaxStDev:          0.0000    
  Gradient MaxStDev:          0.0000    
  Nac      MaxStDev:          0.0000    
  Soc      MaxStDev:          0.0000    
-------------------------------------------------------

  Iter:       55  Ekin =           0.0864341169631492 au T =  1213.06 K dt =         20 CI:   2
  Root chosen for geometry opt   2

  Gnuplot:           0.0000000234897178           0.9999999765102814        -302.9059542691675233        -302.7541041039334004        -302.7541041039334004
  **
  **
  **
  A surface hopping is not allowed
  **
  At state:   2


  &surface hopping information
-------------------------------------------------------

    Random number:             0.23563835
    Accumulated probability:   0.00000000
    state mult  level   probability 
    1     1     1       0.00000000
    2     1     2       0.00000000

    
-------------------------------------------------------

  
  &error iter 55        
-------------------------------------------------------
  Energy   MaxStDev:          0.0000    
  Gradient MaxStDev:          0.0000    
  Nac      MaxStDev:          0.0000    
  Soc      MaxStDev:          0.0000    
-------------------------------------------------------

  Iter:       56  Ekin =           0.0839974743848280 au T =  1178.86 K dt =         20 CI:   2
  Root chosen for geometry opt   2

  Gnuplot:           0.0000000040849911           0.9999999959150090        -302.9033890990618261        -302.7516762806107522        -302.7516762806107522
  **
  **
  **
  A surface hopping is not allowed
  **
  At state:   2


  &surface hopping information
-------------------------------------------------------

    Random number:             0.38442123
    Accumulated probability:   0.00000000
    state mult  level   probability 
    1     1     1       0.00000000
    2     1     2       0.00000000

    
-------------------------------------------------------

  
  &error iter 56        
-------------------------------------------------------
  Energy   MaxStDev:          0.0000    
  Gradient MaxStDev:          0.0000    
  Nac      MaxStDev:          0.0000    
  Soc      MaxStDev:          0.0000    
-------------------------------------------------------

  Iter:       57  Ekin =           0.0808151168530716 au T =  1134.20 K dt =         20 CI:   2
  Root chosen for geometry opt   2

  Gnuplot:           0.0000000408225343           0.9999999591774653        -302.8993303693477515        -302.7485200102416911        -302.7485200102416911
  **
  **
  **
  A surface hopping is not allowed
  **
  At state:   2


  &surface hopping information
-------------------------------------------------------

    Random number:             0.86853385
    Accumulated probability:   0.00000001
    state mult  level   probability 
    1     1     1       0.00000001
    2     1     2       0.00000000

    
-------------------------------------------------------

  
  &error iter 57        
-------------------------------------------------------
  Energy   MaxStDev:          0.0000    
  Gradient MaxStDev:          0.0000    
  Nac      MaxStDev:          0.0000    
  Soc      MaxStDev:          0.0000    
-------------------------------------------------------

  Iter:       58  Ekin =           0.0762767892099419 au T =  1070.50 K dt =         20 CI:   2
  Root chosen for geometry opt   2

  Gnuplot:           0.0000001011854008           0.9999998988146004        -302.8935885720372880        -302.7439576233192611        -302.7439576233192611
  **
  **
  **
  A surface hopping is not allowed
  **
  At state:   2


  &surface hopping information
-------------------------------------------------------

    Random number:             0.26602650
    Accumulated probability:   0.00000002
    state mult  level   probability 
    1     1     1       0.00000002
    2     1     2       0.00000000

    
-------------------------------------------------------

  
  &error iter 58        
-------------------------------------------------------
  Energy   MaxStDev:          0.0000    
  Gradient MaxStDev:          0.0000    
  Nac      MaxStDev:          0.0000    
  Soc      MaxStDev:          0.0000    
-------------------------------------------------------

  Iter:       59  Ekin =           0.0706083660483833 au T =   990.95 K dt =         20 CI:   2
  Root chosen for geometry opt   2

  Gnuplot:           0.0000001689319030           0.9999998310680951        -302.8869015319412483        -302.7381808387838760        -302.7381808387838760
  **
  **
  **
  A surface hopping is not allowed
  **
  At state:   2


  &surface hopping information
-------------------------------------------------------

    Random number:             0.39126256
    Accumulated probability:   0.00000003
    state mult  level   probability 
    1     1     1       0.00000003
    2     1     2       0.00000000

    
-------------------------------------------------------

  
  &error iter 59        
-------------------------------------------------------
  Energy   MaxStDev:          0.0000    
  Gradient MaxStDev:          0.0000    
  Nac      MaxStDev:          0.0000    
  Soc      MaxStDev:          0.0000    
-------------------------------------------------------

  Iter:       60  Ekin =           0.0652803304470762 au T =   916.17 K dt =         20 CI:   2
  Root chosen for geometry opt   2

  Gnuplot:           0.0000002175380206           0.9999997824619840        -302.8808499963348027        -302.7326828920653838        -302.7326828920653838
  **
  **
  **
  A surface hopping is not allowed
  **
  At state:   2


  &surface hopping information
-------------------------------------------------------

    Random number:             0.86737633
    Accumulated probability:   0.00000003
    state mult  level   probability 
    1     1     1       0.00000003
    2     1     2       0.00000000

    
-------------------------------------------------------

  
  &error iter 60        
-------------------------------------------------------
  Energy   MaxStDev:          0.0000    
  Gradient MaxStDev:          0.0000    
  Nac      MaxStDev:          0.0000    
  Soc      MaxStDev:          0.0000    
-------------------------------------------------------

  Iter:       61  Ekin =           0.0626236618752988 au T =   878.89 K dt =         20 CI:   2
  Root chosen for geometry opt   2

  Gnuplot:           0.0000002234254345           0.9999997765745690        -302.8776331981918588        -302.7298751002637687        -302.7298751002637687
  **
  **
  **
  A surface hopping is not allowed
  **
  At state:   2


  &surface hopping information
-------------------------------------------------------

    Random number:             0.87273532
    Accumulated probability:   0.00000003
    state mult  level   probability 
    1     1     1       0.00000003
    2     1     2       0.00000000

    
-------------------------------------------------------

  
  &error iter 61        
-------------------------------------------------------
  Energy   MaxStDev:          0.0000    
  Gradient MaxStDev:          0.0000    
  Nac      MaxStDev:          0.0000    
  Soc      MaxStDev:          0.0000    
-------------------------------------------------------

  Iter:       62  Ekin =           0.0647735808511854 au T =   909.06 K dt =         20 CI:   2
  Root chosen for geometry opt   2

  Gnuplot:           0.0000002373997839           0.9999997626002113        -302.8793398940464954        -302.7319678852126685        -302.7319678852126685
  **
  **
  **
  A surface hopping is not allowed
  **
  At state:   2


  &surface hopping information
-------------------------------------------------------

    Random number:             0.11751797
    Accumulated probability:   0.00000003
    state mult  level   probability 
    1     1     1       0.00000003
    2     1     2       0.00000000

    
-------------------------------------------------------

  
  &error iter 62        
-------------------------------------------------------
  Energy   MaxStDev:          0.0000    
  Gradient MaxStDev:          0.0000    
  Nac      MaxStDev:          0.0000    
  Soc      MaxStDev:          0.0000    
-------------------------------------------------------

  Iter:       63  Ekin =           0.0726247052582109 au T =  1019.25 K dt =         20 CI:   2
  Root chosen for geometry opt   2

  Gnuplot:           0.0000003395290520           0.9999996604709338        -302.8868542174174650        -302.7398816371486419        -302.7398816371486419
  **
  **
  **
  A surface hopping is not allowed
  **
  At state:   2


  &surface hopping information
-------------------------------------------------------

    Random number:             0.19332297
    Accumulated probability:   0.00000006
    state mult  level   probability 
    1     1     1       0.00000006
    2     1     2       0.00000000

    
-------------------------------------------------------

  
  &error iter 63        
-------------------------------------------------------
  Energy   MaxStDev:          0.0000    
  Gradient MaxStDev:          0.0000    
  Nac      MaxStDev:          0.0000    
  Soc      MaxStDev:          0.0000    
-------------------------------------------------------

  Iter:       64  Ekin =           0.0852861632373572 au T =  1196.94 K dt =         20 CI:   2
  Root chosen for geometry opt   2

  Gnuplot:           0.0000004776191580           0.9999995223808469        -302.8992491738645185        -302.7527409231628894        -302.7527409231628894
  **
  **
  **
  A surface hopping is not allowed
  **
  At state:   2


  &surface hopping information
-------------------------------------------------------

    Random number:             0.74706012
    Accumulated probability:   0.00000009
    state mult  level   probability 
    1     1     1       0.00000009
    2     1     2       0.00000000

    
-------------------------------------------------------

  
  &error iter 64        
-------------------------------------------------------
  Energy   MaxStDev:          0.0000    
  Gradient MaxStDev:          0.0000    
  Nac      MaxStDev:          0.0000    
  Soc      MaxStDev:          0.0000    
-------------------------------------------------------

  Iter:       65  Ekin =           0.0998902364788148 au T =  1401.90 K dt =         20 CI:   2
  Root chosen for geometry opt   2

  Gnuplot:           0.0000004761091831           0.9999995238908070        -302.9138023083998519        -302.7676585613604061        -302.7676585613604061
  **
  **
  **
  A surface hopping is not allowed
  **
  At state:   2


  &surface hopping information
-------------------------------------------------------

    Random number:             0.24655974
    Accumulated probability:   0.00000008
    state mult  level   probability 
    1     1     1       0.00000008
    2     1     2       0.00000000

    
-------------------------------------------------------

  
  &error iter 65        
-------------------------------------------------------
  Energy   MaxStDev:          0.0000    
  Gradient MaxStDev:          0.0000    
  Nac      MaxStDev:          0.0000    
  Soc      MaxStDev:          0.0000    
-------------------------------------------------------

  Iter:       66  Ekin =           0.1120640787516870 au T =  1572.76 K dt =         20 CI:   2
  Root chosen for geometry opt   2

  Gnuplot:           0.0000003939064854           0.9999996060935246        -302.9261232681016622        -302.7801564407607202        -302.7801564407607202
  **
  **
  **
  A surface hopping is not allowed
  **
  At state:   2


  &surface hopping information
-------------------------------------------------------

    Random number:             0.21946178
    Accumulated probability:   0.00000007
    state mult  level   probability 
    1     1     1       0.00000007
    2     1     2       0.00000000

    
-------------------------------------------------------

  
  &error iter 66        
-------------------------------------------------------
  Energy   MaxStDev:          0.0000    
  Gradient MaxStDev:          0.0000    
  Nac      MaxStDev:          0.0000    
  Soc      MaxStDev:          0.0000    
-------------------------------------------------------

  Iter:       67  Ekin =           0.1172278810140727 au T =  1645.23 K dt =         20 CI:   2
  Root chosen for geometry opt   2

  Gnuplot:           0.0000003393026244           0.9999996606973696        -302.9313803490612145        -302.7855680038435366        -302.7855680038435366
  **
  **
  **
  A surface hopping is not allowed
  **
  At state:   2


  &surface hopping information
-------------------------------------------------------

    Random number:             0.99920124
    Accumulated probability:   0.00000006
    state mult  level   probability 
    1     1     1       0.00000006
    2     1     2       0.00000000

    
-------------------------------------------------------

  
  &error iter 67        
-------------------------------------------------------
  Energy   MaxStDev:          0.0000    
  Gradient MaxStDev:          0.0000    
  Nac      MaxStDev:          0.0000    
  Soc      MaxStDev:          0.0000    
-------------------------------------------------------

  Iter:       68  Ekin =           0.1129963635420535 au T =  1585.84 K dt =         20 CI:   2
  Root chosen for geometry opt   2

  Gnuplot:           0.0000002801118148           0.9999997198881942        -302.9265685218146587        -302.7811851015860611        -302.7811851015860611
  **
  **
  **
  A surface hopping is not allowed
  **
  At state:   2


  &surface hopping information
-------------------------------------------------------

    Random number:             0.73272729
    Accumulated probability:   0.00000005
    state mult  level   probability 
    1     1     1       0.00000005
    2     1     2       0.00000000

    
-------------------------------------------------------

  
  &error iter 68        
-------------------------------------------------------
  Energy   MaxStDev:          0.0000    
  Gradient MaxStDev:          0.0000    
  Nac      MaxStDev:          0.0000    
  Soc      MaxStDev:          0.0000    
-------------------------------------------------------

  Iter:       69  Ekin =           0.1015555534975781 au T =  1425.28 K dt =         20 CI:   2
  Root chosen for geometry opt   2

  Gnuplot:           0.0000001669303901           0.9999998330696087        -302.9130950728763878        -302.7694031237456898        -302.7694031237456898
  **
  **
  **
  A surface hopping is not allowed
  **
  At state:   2


  &surface hopping information
-------------------------------------------------------

    Random number:             0.93929583
    Accumulated probability:   0.00000002
    state mult  level   probability 
    1     1     1       0.00000002
    2     1     2       0.00000000

    
-------------------------------------------------------

  
  &error iter 69        
-------------------------------------------------------
  Energy   MaxStDev:          0.0000    
  Gradient MaxStDev:          0.0000    
  Nac      MaxStDev:          0.0000    
  Soc      MaxStDev:          0.0000    
-------------------------------------------------------

  Iter:       70  Ekin =           0.0879883961232585 au T =  1234.87 K dt =         20 CI:   2
  Root chosen for geometry opt   2

  Gnuplot:           0.0000000416703438           0.9999999583296564        -302.8968594572537540        -302.7556021508561344        -302.7556021508561344
  **
  **
  **
  A surface hopping is not allowed
  **
  At state:   2


  &surface hopping information
-------------------------------------------------------

    Random number:             0.88738877
    Accumulated probability:   0.00000001
    state mult  level   probability 
    1     1     1       0.00000001
    2     1     2       0.00000000

    
-------------------------------------------------------

  
  &error iter 70        
-------------------------------------------------------
  Energy   MaxStDev:          0.0000    
  Gradient MaxStDev:          0.0000    
  Nac      MaxStDev:          0.0000    
  Soc      MaxStDev:          0.0000    
-------------------------------------------------------

  Iter:       71  Ekin =           0.0763878170453193 au T =  1072.06 K dt =         20 CI:   2
  Root chosen for geometry opt   2

  Gnuplot:           0.0000003559412165           0.9999996440587893        -302.8838242658769673        -302.7439539609526946        -302.7439539609526946
  **
  **
  **
  A surface hopping is not allowed
  **
  At state:   2


  &surface hopping information
-------------------------------------------------------

    Random number:             0.21293491
    Accumulated probability:   0.00000007
    state mult  level   probability 
    1     1     1       0.00000007
    2     1     2       0.00000000

    
-------------------------------------------------------

  
  &error iter 71        
-------------------------------------------------------
  Energy   MaxStDev:          0.0000    
  Gradient MaxStDev:          0.0000    
  Nac      MaxStDev:          0.0000    
  Soc      MaxStDev:          0.0000    
-------------------------------------------------------

  Iter:       72  Ekin =           0.0686073777659350 au T =   962.87 K dt =         20 CI:   2
  Root chosen for geometry opt   2

  Gnuplot:           0.0000006072465201           0.9999993927534661        -302.8757267573967624        -302.7361401593137771        -302.7361401593137771
  **
  **
  **
  A surface hopping is not allowed
  **
  At state:   2


  &surface hopping information
-------------------------------------------------------

    Random number:             0.67282635
    Accumulated probability:   0.00000009
    state mult  level   probability 
    1     1     1       0.00000009
    2     1     2       0.00000000

    
[...]
  **
  At state:   2


  &surface hopping information
-------------------------------------------------------

    Random number:             0.84051555
    Accumulated probability:   0.00023795
    state mult  level   probability 
    1     1     1       0.00023795
    2     1     2       0.00000000

    
-------------------------------------------------------

  
  &error iter 466       
-------------------------------------------------------
  Energy   MaxStDev:          0.0000    
  Gradient MaxStDev:          0.0000    
  Nac      MaxStDev:          0.0000    
  Soc      MaxStDev:          0.0000    
-------------------------------------------------------

  Iter:      467  Ekin =           0.1058742841745063 au T =  1485.89 K dt =         20 CI:   2
  Root chosen for geometry opt   2

  Gnuplot:           0.0109828180891355           0.9890171820297837        -302.7912882123688405        -302.7733390867494450        -302.7733390867494450
  **
  **
  **
  A surface hopping is not allowed
  **
  At state:   2


  &surface hopping information
-------------------------------------------------------

    Random number:             0.08703844
    Accumulated probability:   0.00006001
    state mult  level   probability 
    1     1     1       0.00006001
    2     1     2       0.00000000

    
-------------------------------------------------------

  
  &error iter 467       
-------------------------------------------------------
  Energy   MaxStDev:          0.0000    
  Gradient MaxStDev:          0.0000    
  Nac      MaxStDev:          0.0000    
  Soc      MaxStDev:          0.0000    
-------------------------------------------------------

  Iter:      468  Ekin =           0.1004589337801957 au T =  1409.89 K dt =         20 CI:   2
  Root chosen for geometry opt   2

  Gnuplot:           0.0078293135228953           0.9921706868335605        -302.7857313816805913        -302.7677761299690928        -302.7677761299690928
  **
  **
  **
  A surface hopping is not allowed
  **
  At state:   2


  &surface hopping information
-------------------------------------------------------

    Random number:             0.88361651
    Accumulated probability:   0.00000000
    state mult  level   probability 
    1     1     1       0.00000000
    2     1     2       0.00000000

    
-------------------------------------------------------

  
  &error iter 468       
-------------------------------------------------------
  Energy   MaxStDev:          0.0000    
  Gradient MaxStDev:          0.0000    
  Nac      MaxStDev:          0.0000    
  Soc      MaxStDev:          0.0000    
-------------------------------------------------------

  Iter:      469  Ekin =           0.1003903307148394 au T =  1408.92 K dt =         20 CI:   2
  Root chosen for geometry opt   2

  Gnuplot:           0.0055456981681321           0.9944543018937111        -302.7852017582502526        -302.7678253354527556        -302.7678253354527556
  **
  **
  **
  A surface hopping is not allowed
  **
  At state:   2


  &surface hopping information
-------------------------------------------------------

    Random number:             0.66988707
    Accumulated probability:   0.00002160
    state mult  level   probability 
    1     1     1       0.00002160
    2     1     2       0.00000000

    
-------------------------------------------------------

  
  &error iter 469       
-------------------------------------------------------
  Energy   MaxStDev:          0.0000    
  Gradient MaxStDev:          0.0000    
  Nac      MaxStDev:          0.0000    
  Soc      MaxStDev:          0.0000    
-------------------------------------------------------

  Iter:      470  Ekin =           0.1041679983692338 au T =  1461.94 K dt =         20 CI:   2
  Root chosen for geometry opt   2

  Gnuplot:           0.0039692542495508           0.9960307455621660        -302.7881431591466139        -302.7718215209163191        -302.7718215209163191
  **
  **
  **
  A surface hopping is not allowed
  **
  At state:   2


  &surface hopping information
-------------------------------------------------------

    Random number:             0.16924444
    Accumulated probability:   0.00000000
    state mult  level   probability 
    1     1     1       0.00000000
    2     1     2       0.00000000

    
-------------------------------------------------------

  
  &error iter 470       
-------------------------------------------------------
  Energy   MaxStDev:          0.0000    
  Gradient MaxStDev:          0.0000    
  Nac      MaxStDev:          0.0000    
  Soc      MaxStDev:          0.0000    
-------------------------------------------------------

  Iter:      471  Ekin =           0.1090054389879618 au T =  1529.83 K dt =         20 CI:   2
  Root chosen for geometry opt   2

  Gnuplot:           0.0019573275378721           0.9980426724068820        -302.7921583582199787        -302.7766488649473899        -302.7766488649473899
  **
  **
  **
  A surface hopping is not allowed
  **
  At state:   2


  &surface hopping information
-------------------------------------------------------

    Random number:             0.35113627
    Accumulated probability:   0.00000000
    state mult  level   probability 
    1     1     1       0.00000000
    2     1     2       0.00000000

    
-------------------------------------------------------

  
  &error iter 471       
-------------------------------------------------------
  Energy   MaxStDev:          0.0000    
  Gradient MaxStDev:          0.0000    
  Nac      MaxStDev:          0.0000    
  Soc      MaxStDev:          0.0000    
-------------------------------------------------------

  Iter:      472  Ekin =           0.1144695258840658 au T =  1606.52 K dt =         20 CI:   2
  Root chosen for geometry opt   2

  Gnuplot:           0.0003958484783445           0.9996041515260004        -302.7971987719727736        -302.7819719305553576        -302.7819719305553576
  **
  **
  **
  A surface hopping is not allowed
  **
  At state:   2


  &surface hopping information
-------------------------------------------------------

    Random number:             0.70288128
    Accumulated probability:   0.00000000
    state mult  level   probability 
    1     1     1       0.00000000
    2     1     2       0.00000000

    
-------------------------------------------------------

  
  &error iter 472       
-------------------------------------------------------
  Energy   MaxStDev:          0.0000    
  Gradient MaxStDev:          0.0000    
  Nac      MaxStDev:          0.0000    
  Soc      MaxStDev:          0.0000    
-------------------------------------------------------

  Iter:      473  Ekin =           0.1217107504015956 au T =  1708.14 K dt =         20 CI:   2
  Root chosen for geometry opt   2

  Gnuplot:           0.0001901920682038           0.9998098079377087        -302.8043372084232487        -302.7892484137483393        -302.7892484137483393
  **
  **
  **
  A surface hopping is not allowed
  **
  At state:   2


  &surface hopping information
-------------------------------------------------------

    Random number:             0.61671799
    Accumulated probability:   0.00002663
    state mult  level   probability 
    1     1     1       0.00002663
    2     1     2       0.00000000

    
-------------------------------------------------------

  
  &error iter 473       
-------------------------------------------------------
  Energy   MaxStDev:          0.0000    
  Gradient MaxStDev:          0.0000    
  Nac      MaxStDev:          0.0000    
  Soc      MaxStDev:          0.0000    
-------------------------------------------------------

  Iter:      474  Ekin =           0.1299290691382047 au T =  1823.48 K dt =         20 CI:   2
  Root chosen for geometry opt   2

  Gnuplot:           0.0010324503748581           0.9989675496472046        -302.8123663469294229        -302.7977106513923786        -302.7977106513923786
  **
  **
  **
  A surface hopping is not allowed
  **
  At state:   2


  &surface hopping information
-------------------------------------------------------

    Random number:             0.16775572
    Accumulated probability:   0.00007806
    state mult  level   probability 
    1     1     1       0.00007806
    2     1     2       0.00000000

    
-------------------------------------------------------

  
  &error iter 474       
-------------------------------------------------------
  Energy   MaxStDev:          0.0000    
  Gradient MaxStDev:          0.0000    
  Nac      MaxStDev:          0.0000    
  Soc      MaxStDev:          0.0000    
-------------------------------------------------------

  Iter:      475  Ekin =           0.1357311262098845 au T =  1904.91 K dt =         20 CI:   2
  Root chosen for geometry opt   2

  Gnuplot:           0.0021448732078001           0.9978551268577576        -302.8178676844748907        -302.8037708150900471        -302.8037708150900471
  **
  **
  **
  A surface hopping is not allowed
  **
  At state:   2


  &surface hopping information
-------------------------------------------------------

    Random number:             0.72835588
    Accumulated probability:   0.00008753
    state mult  level   probability 
    1     1     1       0.00008753
    2     1     2       0.00000000

    
-------------------------------------------------------

  
  &error iter 475       
-------------------------------------------------------
  Energy   MaxStDev:          0.0000    
  Gradient MaxStDev:          0.0000    
  Nac      MaxStDev:          0.0000    
  Soc      MaxStDev:          0.0000    
-------------------------------------------------------

  Iter:      476  Ekin =           0.1355897370152701 au T =  1902.93 K dt =         20 CI:   2
  Root chosen for geometry opt   2

  Gnuplot:           0.0030011942086998           0.9969988057855517        -302.8169979633640878        -302.8037512416609047        -302.8037512416609047
  **
  **
  **
  A surface hopping is not allowed
  **
  At state:   2


  &surface hopping information
-------------------------------------------------------

    Random number:             0.16465993
    Accumulated probability:   0.00008452
    state mult  level   probability 
    1     1     1       0.00008452
    2     1     2       0.00000000

    
-------------------------------------------------------

  
  &error iter 476       
-------------------------------------------------------
  Energy   MaxStDev:          0.0000    
  Gradient MaxStDev:          0.0000    
  Nac      MaxStDev:          0.0000    
  Soc      MaxStDev:          0.0000    
-------------------------------------------------------

  Iter:      477  Ekin =           0.1274208926108851 au T =  1788.28 K dt =         20 CI:   2
  Root chosen for geometry opt   2

  Gnuplot:           0.0034752872430952           0.9965247127693146        -302.8075084694812631        -302.7957113808437271        -302.7957113808437271
  **
  **
  **
  A surface hopping is not allowed
  **
  At state:   2


  &surface hopping information
-------------------------------------------------------

    Random number:             0.15791209
    Accumulated probability:   0.00006007
    state mult  level   probability 
    1     1     1       0.00006007
    2     1     2       0.00000000

    
-------------------------------------------------------

  
  &error iter 477       
-------------------------------------------------------
  Energy   MaxStDev:          0.0000    
  Gradient MaxStDev:          0.0000    
  Nac      MaxStDev:          0.0000    
  Soc      MaxStDev:          0.0000    
-------------------------------------------------------

  Iter:      478  Ekin =           0.1122164115502085 au T =  1574.90 K dt =         20 CI:   2
  Root chosen for geometry opt   2

  Gnuplot:           0.0035251769775935           0.9964748229831457        -302.7914580072527997        -302.7800043885773107        -302.7800043885773107
  **
  **
  **
  A surface hopping is not allowed
  **
  At state:   2


  &surface hopping information
-------------------------------------------------------

    Random number:             0.57760841
    Accumulated probability:   0.00003682
    state mult  level   probability 
    1     1     1       0.00003682
    2     1     2       0.00000000

    
-------------------------------------------------------

  
  &error iter 478       
-------------------------------------------------------
  Energy   MaxStDev:          0.0000    
  Gradient MaxStDev:          0.0000    
  Nac      MaxStDev:          0.0000    
  Soc      MaxStDev:          0.0000    
-------------------------------------------------------

  Iter:      479  Ekin =           0.0990267740134277 au T =  1389.79 K dt =         20 CI:   2
  Root chosen for geometry opt   2

  Gnuplot:           0.0032479157058936           0.9967520842328668        -302.7790422862421451        -302.7659364262781878        -302.7659364262781878
  **
  **
  **
  A surface hopping is not allowed
  **
  At state:   2


  &surface hopping information
-------------------------------------------------------

    Random number:             0.41108227
    Accumulated probability:   0.00002289
    state mult  level   probability 
    1     1     1       0.00002289
    2     1     2       0.00000000

    
-------------------------------------------------------

  
  &error iter 479       
-------------------------------------------------------
  Energy   MaxStDev:          0.0000    
  Gradient MaxStDev:          0.0000    
  Nac      MaxStDev:          0.0000    
  Soc      MaxStDev:          0.0000    
-------------------------------------------------------

  Iter:      480  Ekin =           0.0985687421492071 au T =  1383.36 K dt =         20 CI:   2
  Root chosen for geometry opt   2

  Gnuplot:           0.0027503455405691           0.9972496544942260        -302.7798511997897890        -302.7656620589974636        -302.7656620589974636
  **
  **
  **
  A surface hopping is not allowed
  **
  At state:   2


  &surface hopping information
-------------------------------------------------------

    Random number:             0.28130192
    Accumulated probability:   0.00001246
    state mult  level   probability 
    1     1     1       0.00001246
    2     1     2       0.00000000

    
-------------------------------------------------------

  
  &error iter 480       
-------------------------------------------------------
  Energy   MaxStDev:          0.0000    
  Gradient MaxStDev:          0.0000    
  Nac      MaxStDev:          0.0000    
  Soc      MaxStDev:          0.0000    
-------------------------------------------------------

  Iter:      481  Ekin =           0.1091341774906826 au T =  1531.64 K dt =         20 CI:   2
  Root chosen for geometry opt   2

  Gnuplot:           0.0025458318010203           0.9974541682749987        -302.7902232173958055        -302.7768369322639046        -302.7768369322639046
  **
  **
  **
  A surface hopping is not allowed
  **
  At state:   2


  &surface hopping information
-------------------------------------------------------

    Random number:             0.65660542
    Accumulated probability:   0.00004700
    state mult  level   probability 
    1     1     1       0.00004700
    2     1     2       0.00000000

    
-------------------------------------------------------

  
  &error iter 481       
-------------------------------------------------------
  Energy   MaxStDev:          0.0000    
  Gradient MaxStDev:          0.0000    
  Nac      MaxStDev:          0.0000    
  Soc      MaxStDev:          0.0000    
-------------------------------------------------------

  Iter:      482  Ekin =           0.1222750280821283 au T =  1716.06 K dt =         20 CI:   2
  Root chosen for geometry opt   2

  Gnuplot:           0.0046264877005033           0.9953735121525824        -302.8005222123914564        -302.7900554421814263        -302.7900554421814263
  **
  **
  **
  A surface hopping is not allowed
  **
  At state:   2


  &surface hopping information
-------------------------------------------------------

    Random number:             0.04952570
    Accumulated probability:   0.00032280
    state mult  level   probability 
    1     1     1       0.00032280
    2     1     2       0.00000000

    
-------------------------------------------------------

  
  &error iter 482       
-------------------------------------------------------
  Energy   MaxStDev:          0.0000    
  Gradient MaxStDev:          0.0000    
  Nac      MaxStDev:          0.0000    
  Soc      MaxStDev:          0.0000    
-------------------------------------------------------

  Iter:      483  Ekin =           0.1340146364918297 au T =  1880.82 K dt =         20 CI:   2
  Root chosen for geometry opt   2

  Gnuplot:           0.0236994563314315           0.9763005431741476        -302.8074623720034424        -302.8018371082986846        -302.8018371082986846
  **
  **
  **
  A surface hopping is not allowed
  **
  At state:   2


  &surface hopping information
-------------------------------------------------------

    Random number:             0.50110692
    Accumulated probability:   0.00231799
    state mult  level   probability 
    1     1     1       0.00231799
    2     1     2       0.00000000

    
-------------------------------------------------------

  
  &error iter 483       
-------------------------------------------------------
  Energy   MaxStDev:          0.0000    
  Gradient MaxStDev:          0.0000    
  Nac      MaxStDev:          0.0000    
  Soc      MaxStDev:          0.0000    
-------------------------------------------------------

  Iter:      484  Ekin =           0.1430637958153317 au T =  2007.82 K dt =         20 CI:   2
  Root chosen for geometry opt   2

  Gnuplot:           0.5379862291757438           0.4620137810707092        -302.8116876923478458        -302.8109519593664345        -302.8109519593664345
  **
  **
  **
  A surface hopping is not allowed
  **
  At state:   2


  &surface hopping information
-------------------------------------------------------

    Random number:             0.32850873
    Accumulated probability:   0.13329810
    state mult  level   probability 
    1     1     1       0.13329810
    2     1     2       0.00000000

    
-------------------------------------------------------

  
  &error iter 484       
-------------------------------------------------------
  Energy   MaxStDev:          0.0000    
  Gradient MaxStDev:          0.0000    
  Nac      MaxStDev:          0.0000    
  Soc      MaxStDev:          0.0000    
-------------------------------------------------------

  Iter:      485  Ekin =           0.1482053400731919 au T =  2079.98 K dt =         20 CI:   2
  Root chosen for geometry opt   2

  Gnuplot:                          nan                          nan        -302.8135382575611061        -302.8161124855371327        -302.8161124855371327
  **
  **
  **
  A surface hopping is not allowed
  **
  At state:   2


  &surface hopping information
-------------------------------------------------------

    Random number:             0.39517567
    Accumulated probability:   1.20612681
    state mult  level   probability 
    1     1     2       1.20612685
    2     1     1       0.00000000

    
-------------------------------------------------------

  
  &error iter 485       
-------------------------------------------------------
  Energy   MaxStDev:          0.0000    
  Gradient MaxStDev:          0.0000    
  Nac      MaxStDev:          0.0000    
  Soc      MaxStDev:          0.0000    
-------------------------------------------------------

Trajectory terminated because the state population is nan.
Nonadiabatic Molecular Dynamics End:  2026-02-25 10:48:51 Total:     0 days     0 hours     2 minutes     1 seconds
