Nonadiabatic Molecular Dynamics Start:  2026-02-25 10:46:56


  -------------------------------------------------------------------
                              /\
   |\    /|                  /++\
   ||\  /||                 /++++\
   || \/ || ||             /++++++\
   ||    || ||            /PyRAI2MD\
   ||    || ||           /++++++++++\                    __
            ||          /++++++++++++\    |\ |  /\  |\/| | \
            ||__ __    *==============*   | \| /--\ |  | |_/

                          Python Rapid
                     Artificial Intelligence
                  Ab Initio Molecular Dynamics



                      Author @Jingbai Li
                      
                      
    2022 – present   Hoffmann Institute of Advanced Materials
                     Shenzhen Polytechnic, Shenzhen, China    
                                
    2019 – 2022      Department of Chemistry and Chemical Biology
                     Northeastern University, Boston, USA

                          version:   2.5.1

  With contributions from (in alphabetic order):
    Jingbai Li     - Fewest switches surface hopping
                     Zhu-Nakamura surface hopping
                     Velocity Verlet
                     OpenMolcas interface
                     OpenMolcas/Tinker interface
                     BAGEL interface
                     ORCA interface
                     OpenQP interface
                     GFN-xTB interface
                     Adaptive sampling
                     Grid search
                     Multilayer ONIOM (QM:QM' and QM:QM':MM)
                     Periodic boundary condition
                     Wall potential
                     QC/ML hybrid NAMD
                     Excited-State Neural Network Potentials (ESNNP)

    Patrick Reiser - Fully connected neural networks (pyNNsMD)
                     SchNet (pyNNsMD)

  Special acknowledgement to:
    Steven A. Lopez            - Project co-founder
    Pascal Friederich          - Project co-founder




  &control
-------------------------------------------------------
  Title:                      dbh-8     
  NPROCS for ML:              1         
  NPROCS for QC:              1         
  NPROCS for Multiscale:      1          
  Seed:                       1         
  Job: 	                      md        
  QM:          	       	      nequip    
  Ab initio:                  molcas    
-------------------------------------------------------

        
  &molecule
-------------------------------------------------------
  States:                     [2]       
  Spin:                       [0]       
  Interstates:                [[1, 2]]  
  QMMM keyfile:               None      
  QMMM xyzfile:               Input     
  High level region:          []         ...
  Middel level region:        []         ...
  Boundary:                   []         ...
  Embedding charges:          False     
  Reading charge:             False     
  Frozen atoms:               []        
  Constrained atoms:          []        
  Restrained bonds:           []        
  Restrained angles:          []        
  Restrained dihedrals:       []        
  Restrained bond value:      []        
  Restrained angle value:     []        
  Restrained dihedral value:  []        
  Bond potential scale:       10.0      
  Angle potential scale:      0.005     
  Dihedral potential scale:   1e-06     
  External potential shape:   ['ellipsoid']
  External potential radius:  []        
  External potential factor:  [40]      
  External potential scale:   [1.0]       
  Compress potential volume:  []        
  Potential center:           []        
  Potential center type:      xyz       
  Constrained groups          []        
  Track geometry type:        None      
  Track indices:              []        
  Track threshold:            []        
  Track stop task:            0         
  Lattice vectors:            []        
  Lattice constant:           []        
  Periodic boundary condition []        
-------------------------------------------------------

        
  &initial condition
-------------------------------------------------------
  Generate initial condition: 0         
  Number:                     5000      
  Method:                     wigner     
  Format:                     molden    
-------------------------------------------------------

        
  &md
-------------------------------------------------------
  Initial state:              2         
  Initialize random velocity  0         
  Temperature (K):            300       
  Step:                       2000      
  Dt (au):                    20.67     
  Only active state grad      0         
  Surface hopping:            fssh      
  NAC type:                   nac       
  Phase correction            1         
  Population reset            0         
  Substep:                    20        
  Integrate probability       0         
  Decoherence:                0.1       
  Adjust velocity:            2         
  Reflect velocity:           1         
  Maxhop:                     10        
  IC hopping gap threshold    0.5       
  ISC hopping gap threshold   0.5       
  Thermodynamic:              off       
  Thermodynamic delay:        200       
  Print level:                0         
  Direct output:              2000      
  Buffer output:              0         
  Record MD data:             1         
  Record MD steps:            0         
  Checkpoint steps:           1          
  Restart function:           0         
  Additional steps:           0         
-------------------------------------------------------

        
  &md velocity control
-------------------------------------------------------
  Excess kinetic energy       0         
  Scale kinetic energy        1         
  Target kinetic energy       0         
  Gradient descent path       0         
  Reset velocity:             0         
  Reset step:                 0         
-------------------------------------------------------

        
  &nequip
-------------------------------------------------------
  Train data:                 None      
  Prediction data:            None      
  Train mode:                 training  
  Silent mode:                1         
  Data splits:                10        
  NN EG type:                 1         
  NN NAC type:                0         
  NN SOC type:                0         
  Multiscale:                 []        
  Shuffle data:               False     
  EG unit:                    si        
  NAC unit:                   si        
  SOC unit:                   cm-1
  Select EG output:           []        
  Select NAC output:          []        
  Select SOC output:          []          
  Data permutation            No        
  Elements                              
-------------------------------------------------------

        

  NequIP-NAC (Energy + Gradient + NAC)

  &hyperparameters            Energy+Gradient      Nonadiabatic         Spin-orbit
----------------------------------------------------------------------------------------------
  Model type:                 NequIPeg            NequIPnac           n/a          
  Model path:                 dbh-8.nequip.pth     dbh-8.nequip.pth     n/a                 
  GPU:                        1                    1                    n/a                 
  Chemical symbols:           auto                 auto                 n/a                 
----------------------------------------------------------------------------------------------
        


 *---------------------------------------------------*
 |                                                   |
 |          Nonadiabatic Molecular Dynamics          |
 |                                                   |
 *---------------------------------------------------*


  State order:         1   2
  Multiplicity:        1   1

  QMMM key:         None
  QMMM xyz          Input
  Active atoms:     15
  Inactive atoms:   0
  Link atoms:       0
  Highlevel atoms:  15
  Midlevel atoms:   0
  Lowlevel atoms:   0
  
  Lattice vector:   None
  Periodic X/Y/Z:   None

  Iter:        1  Ekin =           0.0642249035331460 au T =   901.36 K dt =         20 CI:   2
  Root chosen for geometry opt   2

  Gnuplot:           0.0000000000000000           1.0000000000000000        -302.9507878896590682        -302.7887798619599380        -302.7887798619599380
  **
  **
  **
  A surface hopping is not allowed
  **
  At state:   2


  &surface hopping information
-------------------------------------------------------
  No surface hopping is performed
-------------------------------------------------------

  
  &error iter 1         
-------------------------------------------------------
  Energy   MaxStDev:          0.0000    
  Gradient MaxStDev:          0.0000    
  Nac      MaxStDev:          0.0000    
  Soc      MaxStDev:          0.0000    
-------------------------------------------------------

  Iter:        2  Ekin =           0.0664814319529651 au T =   933.03 K dt =         20 CI:   2
  Root chosen for geometry opt   2

  Gnuplot:           0.0000000000000000           1.0000000000000000        -302.9526848224242030        -302.7911188699743548        -302.7911188699743548
  **
  **
  **
  A surface hopping is not allowed
  **
  At state:   2


  &surface hopping information
-------------------------------------------------------
  No surface hopping is performed
-------------------------------------------------------

  
  &error iter 2         
-------------------------------------------------------
  Energy   MaxStDev:          0.0000    
  Gradient MaxStDev:          0.0000    
  Nac      MaxStDev:          0.0000    
  Soc      MaxStDev:          0.0000    
-------------------------------------------------------

  Iter:        3  Ekin =           0.0656734368916836 au T =   921.69 K dt =         20 CI:   2
  Root chosen for geometry opt   2

  Gnuplot:           0.0000000000000000           1.0000000000000000        -302.9513171331080343        -302.7903322653477858        -302.7903322653477858
  **
  **
  **
  A surface hopping is not allowed
  **
  At state:   2


  &surface hopping information
-------------------------------------------------------
  No surface hopping is performed
-------------------------------------------------------

  
  &error iter 3         
-------------------------------------------------------
  Energy   MaxStDev:          0.0000    
  Gradient MaxStDev:          0.0000    
  Nac      MaxStDev:          0.0000    
  Soc      MaxStDev:          0.0000    
-------------------------------------------------------

  Iter:        4  Ekin =           0.0614980651018184 au T =   863.09 K dt =         20 CI:   2
  Root chosen for geometry opt   2

  Gnuplot:           0.0000010021124541           0.9999989978875874        -302.9462355299051524        -302.7861422015915309        -302.7861422015915309
  **
  **
  **
  A surface hopping is not allowed
  **
  At state:   2


  &surface hopping information
-------------------------------------------------------

    Random number:             0.53182757
    Accumulated probability:   0.00000008
    state mult  level   probability 
    1     1     1       0.00000008
    2     1     2       0.00000000

    
-------------------------------------------------------

  
  &error iter 4         
-------------------------------------------------------
  Energy   MaxStDev:          0.0000    
  Gradient MaxStDev:          0.0000    
  Nac      MaxStDev:          0.0000    
  Soc      MaxStDev:          0.0000    
-------------------------------------------------------

  Iter:        5  Ekin =           0.0546095207420069 au T =   766.41 K dt =         20 CI:   2
  Root chosen for geometry opt   2

  Gnuplot:           0.0000002187171923           0.9999997812828099        -302.9382524014478122        -302.7791397726144851        -302.7791397726144851
  **
  **
  **
  A surface hopping is not allowed
  **
  At state:   2


  &surface hopping information
-------------------------------------------------------

    Random number:             0.50183666
    Accumulated probability:   0.00000003
    state mult  level   probability 
    1     1     1       0.00000003
    2     1     2       0.00000000

    
-------------------------------------------------------

  
  &error iter 5         
-------------------------------------------------------
  Energy   MaxStDev:          0.0000    
  Gradient MaxStDev:          0.0000    
  Nac      MaxStDev:          0.0000    
  Soc      MaxStDev:          0.0000    
-------------------------------------------------------

  Iter:        6  Ekin =           0.0471348277103065 au T =   661.51 K dt =         20 CI:   2
  Root chosen for geometry opt   2

  Gnuplot:           0.0000002063957852           0.9999997936042178        -302.9300498249169777        -302.7714465699489210        -302.7714465699489210
  **
  **
  **
  A surface hopping is not allowed
  **
  At state:   2


  &surface hopping information
-------------------------------------------------------

    Random number:             0.51042235
    Accumulated probability:   0.00000001
    state mult  level   probability 
    1     1     1       0.00000001
    2     1     2       0.00000000

    
-------------------------------------------------------

  
  &error iter 6         
-------------------------------------------------------
  Energy   MaxStDev:          0.0000    
  Gradient MaxStDev:          0.0000    
  Nac      MaxStDev:          0.0000    
  Soc      MaxStDev:          0.0000    
-------------------------------------------------------

  Iter:        7  Ekin =           0.0424247006061272 au T =   595.41 K dt =         20 CI:   2
  Root chosen for geometry opt   2

  Gnuplot:           0.0000000198080017           0.9999999801919977        -302.9250571501691525        -302.7665575321531151        -302.7665575321531151
  **
  **
  **
  A surface hopping is not allowed
  **
  At state:   2


  &surface hopping information
-------------------------------------------------------

    Random number:             0.69552952
    Accumulated probability:   0.00000000
    state mult  level   probability 
    1     1     1       0.00000000
    2     1     2       0.00000000

    
-------------------------------------------------------

  
  &error iter 7         
-------------------------------------------------------
  Energy   MaxStDev:          0.0000    
  Gradient MaxStDev:          0.0000    
  Nac      MaxStDev:          0.0000    
  Soc      MaxStDev:          0.0000    
-------------------------------------------------------

  Iter:        8  Ekin =           0.0430163929300581 au T =   603.71 K dt =         20 CI:   2
  Root chosen for geometry opt   2

  Gnuplot:           0.0000000026755630           0.9999999973244371        -302.9254850371318071        -302.7671802716197931        -302.7671802716197931
  **
  **
  **
  A surface hopping is not allowed
  **
  At state:   2


  &surface hopping information
-------------------------------------------------------

    Random number:             0.34345600
    Accumulated probability:   0.00000000
    state mult  level   probability 
    1     1     1       0.00000000
    2     1     2       0.00000000

    
-------------------------------------------------------

  
  &error iter 8         
-------------------------------------------------------
  Energy   MaxStDev:          0.0000    
  Gradient MaxStDev:          0.0000    
  Nac      MaxStDev:          0.0000    
  Soc      MaxStDev:          0.0000    
-------------------------------------------------------

  Iter:        9  Ekin =           0.0484499707046470 au T =   679.97 K dt =         20 CI:   2
  Root chosen for geometry opt   2

  Gnuplot:           0.0000000106408162           0.9999999893591838        -302.9310962899521655        -302.7728411487428275        -302.7728411487428275
  **
  **
  **
  A surface hopping is not allowed
  **
  At state:   2


  &surface hopping information
-------------------------------------------------------

    Random number:             0.98834544
    Accumulated probability:   0.00000000
    state mult  level   probability 
    1     1     1       0.00000000
    2     1     2       0.00000000

    
-------------------------------------------------------

  
  &error iter 9         
-------------------------------------------------------
  Energy   MaxStDev:          0.0000    
  Gradient MaxStDev:          0.0000    
  Nac      MaxStDev:          0.0000    
  Soc      MaxStDev:          0.0000    
-------------------------------------------------------

  Iter:       10  Ekin =           0.0555274633763732 au T =   779.30 K dt =         20 CI:   2
  Root chosen for geometry opt   2

  Gnuplot:           0.0000000050002713           0.9999999949997287        -302.9388780080260517        -302.7801327131840594        -302.7801327131840594
  **
  **
  **
  A surface hopping is not allowed
  **
  At state:   2


  &surface hopping information
-------------------------------------------------------

    Random number:             0.54776359
    Accumulated probability:   0.00000000
    state mult  level   probability 
    1     1     1       0.00000000
    2     1     2       0.00000000

    
-------------------------------------------------------

  
  &error iter 10        
-------------------------------------------------------
  Energy   MaxStDev:          0.0000    
  Gradient MaxStDev:          0.0000    
  Nac      MaxStDev:          0.0000    
  Soc      MaxStDev:          0.0000    
-------------------------------------------------------

  Iter:       11  Ekin =           0.0608630797914919 au T =   854.18 K dt =         20 CI:   2
  Root chosen for geometry opt   2

  Gnuplot:           0.0000000007283641           0.9999999992716359        -302.9449945151085899        -302.7855526895686467        -302.7855526895686467
  **
  **
  **
  A surface hopping is not allowed
  **
  At state:   2


  &surface hopping information
-------------------------------------------------------

    Random number:             0.44032788
    Accumulated probability:   0.00000000
    state mult  level   probability 
    1     1     1       0.00000000
    2     1     2       0.00000000

    
-------------------------------------------------------

  
  &error iter 11        
-------------------------------------------------------
  Energy   MaxStDev:          0.0000    
  Gradient MaxStDev:          0.0000    
  Nac      MaxStDev:          0.0000    
  Soc      MaxStDev:          0.0000    
-------------------------------------------------------

  Iter:       12  Ekin =           0.0627346348083057 au T =   880.45 K dt =         20 CI:   2
  Root chosen for geometry opt   2

  Gnuplot:           0.0000000002658910           0.9999999997341090        -302.9472743015950300        -302.7874040514353169        -302.7874040514353169
  **
  **
  **
  A surface hopping is not allowed
  **
  At state:   2


  &surface hopping information
-------------------------------------------------------

    Random number:             0.42430687
    Accumulated probability:   0.00000000
    state mult  level   probability 
    1     1     1       0.00000000
    2     1     2       0.00000000

    
-------------------------------------------------------

  
  &error iter 12        
-------------------------------------------------------
  Energy   MaxStDev:          0.0000    
  Gradient MaxStDev:          0.0000    
  Nac      MaxStDev:          0.0000    
  Soc      MaxStDev:          0.0000    
-------------------------------------------------------

  Iter:       13  Ekin =           0.0611357782668971 au T =   858.01 K dt =         20 CI:   2
  Root chosen for geometry opt   2

  Gnuplot:           0.0000000021956669           0.9999999978043330        -302.9455657031819555        -302.7857132870580017        -302.7857132870580017
  **
  **
  **
  A surface hopping is not allowed
  **
  At state:   2


  &surface hopping information
-------------------------------------------------------

    Random number:             0.12175436
    Accumulated probability:   0.00000000
    state mult  level   probability 
    1     1     1       0.00000000
    2     1     2       0.00000000

    
-------------------------------------------------------

  
  &error iter 13        
-------------------------------------------------------
  Energy   MaxStDev:          0.0000    
  Gradient MaxStDev:          0.0000    
  Nac      MaxStDev:          0.0000    
  Soc      MaxStDev:          0.0000    
-------------------------------------------------------

  Iter:       14  Ekin =           0.0572640959238394 au T =   803.67 K dt =         20 CI:   2
  Root chosen for geometry opt   2

  Gnuplot:           0.0000000100274353           0.9999999899725651        -302.9411397892928903        -302.7817159181475404        -302.7817159181475404
  **
  **
  **
  A surface hopping is not allowed
  **
  At state:   2


  &surface hopping information
-------------------------------------------------------

    Random number:             0.18690374
    Accumulated probability:   0.00000000
    state mult  level   probability 
    1     1     1       0.00000000
    2     1     2       0.00000000

    
-------------------------------------------------------

  
  &error iter 14        
-------------------------------------------------------
  Energy   MaxStDev:          0.0000    
  Gradient MaxStDev:          0.0000    
  Nac      MaxStDev:          0.0000    
  Soc      MaxStDev:          0.0000    
-------------------------------------------------------

  Iter:       15  Ekin =           0.0528540712567510 au T =   741.78 K dt =         20 CI:   2
  Root chosen for geometry opt   2

  Gnuplot:           0.0000000357164405           0.9999999642835604        -302.9359539432368251        -302.7772005893413052        -302.7772005893413052
  **
  **
  **
  A surface hopping is not allowed
  **
  At state:   2


  &surface hopping information
-------------------------------------------------------

    Random number:             0.62630934
    Accumulated probability:   0.00000001
    state mult  level   probability 
    1     1     1       0.00000001
    2     1     2       0.00000000

    
-------------------------------------------------------

  
  &error iter 15        
-------------------------------------------------------
  Energy   MaxStDev:          0.0000    
  Gradient MaxStDev:          0.0000    
  Nac      MaxStDev:          0.0000    
  Soc      MaxStDev:          0.0000    
-------------------------------------------------------

  Iter:       16  Ekin =           0.0494716102997224 au T =   694.31 K dt =         20 CI:   2
  Root chosen for geometry opt   2

  Gnuplot:           0.0000000791729047           0.9999999208270935        -302.9317830159556593        -302.7737516222009617        -302.7737516222009617
  **
  **
  **
  A surface hopping is not allowed
  **
  At state:   2


  &surface hopping information
-------------------------------------------------------

    Random number:             0.26690581
    Accumulated probability:   0.00000001
    state mult  level   probability 
    1     1     1       0.00000001
    2     1     2       0.00000000

    
-------------------------------------------------------

  
  &error iter 16        
-------------------------------------------------------
  Energy   MaxStDev:          0.0000    
  Gradient MaxStDev:          0.0000    
  Nac      MaxStDev:          0.0000    
  Soc      MaxStDev:          0.0000    
-------------------------------------------------------

  Iter:       17  Ekin =           0.0481382681867779 au T =   675.59 K dt =         20 CI:   2
  Root chosen for geometry opt   2

  Gnuplot:           0.0000001105431937           0.9999998894568094        -302.9297398421242633        -302.7723938301116959        -302.7723938301116959
  **
  **
  **
  A surface hopping is not allowed
  **
  At state:   2


  &surface hopping information
-------------------------------------------------------

    Random number:             0.02619660
    Accumulated probability:   0.00000001
    state mult  level   probability 
    1     1     1       0.00000001
    2     1     2       0.00000000

    
-------------------------------------------------------

  
  &error iter 17        
-------------------------------------------------------
  Energy   MaxStDev:          0.0000    
  Gradient MaxStDev:          0.0000    
  Nac      MaxStDev:          0.0000    
  Soc      MaxStDev:          0.0000    
-------------------------------------------------------

  Iter:       18  Ekin =           0.0492232984667725 au T =   690.82 K dt =         20 CI:   2
  Root chosen for geometry opt   2

  Gnuplot:           0.0000001063831590           0.9999998936168382        -302.9301959971155611        -302.7734961870821735        -302.7734961870821735
  **
  **
  **
  A surface hopping is not allowed
  **
  At state:   2


  &surface hopping information
-------------------------------------------------------

    Random number:             0.59648693
    Accumulated probability:   0.00000001
    state mult  level   probability 
    1     1     1       0.00000001
    2     1     2       0.00000000

    
-------------------------------------------------------

  
  &error iter 18        
-------------------------------------------------------
  Energy   MaxStDev:          0.0000    
  Gradient MaxStDev:          0.0000    
  Nac      MaxStDev:          0.0000    
  Soc      MaxStDev:          0.0000    
-------------------------------------------------------

  Iter:       19  Ekin =           0.0524546118248264 au T =   736.17 K dt =         20 CI:   2
  Root chosen for geometry opt   2

  Gnuplot:           0.0000000754595691           0.9999999245404325        -302.9328610115510969        -302.7767776927711907        -302.7767776927711907
  **
  **
  **
  A surface hopping is not allowed
  **
  At state:   2


  &surface hopping information
-------------------------------------------------------

    Random number:             0.50056142
    Accumulated probability:   0.00000001
    state mult  level   probability 
    1     1     1       0.00000001
    2     1     2       0.00000000

    
-------------------------------------------------------

  
  &error iter 19        
-------------------------------------------------------
  Energy   MaxStDev:          0.0000    
  Gradient MaxStDev:          0.0000    
  Nac      MaxStDev:          0.0000    
  Soc      MaxStDev:          0.0000    
-------------------------------------------------------

  Iter:       20  Ekin =           0.0570572414438387 au T =   800.77 K dt =         20 CI:   2
  Root chosen for geometry opt   2

  Gnuplot:           0.0000000422737728           0.9999999577262280        -302.9369489242606619        -302.7814473602544467        -302.7814473602544467
  **
  **
  **
  A surface hopping is not allowed
  **
  At state:   2


  &surface hopping information
-------------------------------------------------------

    Random number:             0.24221981
    Accumulated probability:   0.00000000
    state mult  level   probability 
    1     1     1       0.00000000
    2     1     2       0.00000000

    
-------------------------------------------------------

  
  &error iter 20        
-------------------------------------------------------
  Energy   MaxStDev:          0.0000    
  Gradient MaxStDev:          0.0000    
  Nac      MaxStDev:          0.0000    
  Soc      MaxStDev:          0.0000    
-------------------------------------------------------

  Iter:       21  Ekin =           0.0619881539260677 au T =   869.97 K dt =         20 CI:   2
  Root chosen for geometry opt   2

  Gnuplot:           0.0000000212853370           0.9999999787146638        -302.9413874240710811        -302.7864486424562642        -302.7864486424562642
  **
  **
  **
  A surface hopping is not allowed
  **
  At state:   2


  &surface hopping information
-------------------------------------------------------

    Random number:             0.36418745
    Accumulated probability:   0.00000000
    state mult  level   probability 
    1     1     1       0.00000000
    2     1     2       0.00000000

    
-------------------------------------------------------

  
  &error iter 21        
-------------------------------------------------------
  Energy   MaxStDev:          0.0000    
  Gradient MaxStDev:          0.0000    
  Nac      MaxStDev:          0.0000    
  Soc      MaxStDev:          0.0000    
-------------------------------------------------------

  Iter:       22  Ekin =           0.0661389530610579 au T =   928.22 K dt =         20 CI:   2
  Root chosen for geometry opt   2

  Gnuplot:           0.0000000092093476           0.9999999907906520        -302.9450081952894607        -302.7906717362100721        -302.7906717362100721
  **
  **
  **
  A surface hopping is not allowed
  **
  At state:   2


  &surface hopping information
-------------------------------------------------------

    Random number:             0.23747823
    Accumulated probability:   0.00000000
    state mult  level   probability 
    1     1     1       0.00000000
    2     1     2       0.00000000

    
-------------------------------------------------------

  
  &error iter 22        
-------------------------------------------------------
  Energy   MaxStDev:          0.0000    
  Gradient MaxStDev:          0.0000    
  Nac      MaxStDev:          0.0000    
  Soc      MaxStDev:          0.0000    
-------------------------------------------------------

  Iter:       23  Ekin =           0.0684190483640114 au T =   960.22 K dt =         20 CI:   2
  Root chosen for geometry opt   2

  Gnuplot:           0.0000000010163052           0.9999999989836948        -302.9466755495777193        -302.7930254802607237        -302.7930254802607237
  **
  **
  **
  A surface hopping is not allowed
  **
  At state:   2


  &surface hopping information
-------------------------------------------------------

    Random number:             0.84575248
    Accumulated probability:   0.00000000
    state mult  level   probability 
    1     1     1       0.00000000
    2     1     2       0.00000000

    
-------------------------------------------------------

  
  &error iter 23        
-------------------------------------------------------
  Energy   MaxStDev:          0.0000    
  Gradient MaxStDev:          0.0000    
  Nac      MaxStDev:          0.0000    
  Soc      MaxStDev:          0.0000    
-------------------------------------------------------

  Iter:       24  Ekin =           0.0678213762062828 au T =   951.84 K dt =         20 CI:   2
  Root chosen for geometry opt   2

  Gnuplot:           0.0000000115716007           0.9999999884283994        -302.9453722622435521        -302.7924913008309318        -302.7924913008309318
  **
  **
  **
  A surface hopping is not allowed
  **
  At state:   2


  &surface hopping information
-------------------------------------------------------

    Random number:             0.86335337
    Accumulated probability:   0.00000000
    state mult  level   probability 
    1     1     1       0.00000000
    2     1     2       0.00000000

    
-------------------------------------------------------

  
  &error iter 24        
-------------------------------------------------------
  Energy   MaxStDev:          0.0000    
  Gradient MaxStDev:          0.0000    
  Nac      MaxStDev:          0.0000    
  Soc      MaxStDev:          0.0000    
-------------------------------------------------------

  Iter:       25  Ekin =           0.0636628302728708 au T =   893.47 K dt =         20 CI:   2
  Root chosen for geometry opt   2

  Gnuplot:           0.0000000794557092           0.9999999205442904        -302.9404981840551159        -302.7883488008632185        -302.7883488008632185
  **
  **
  **
  A surface hopping is not allowed
  **
  At state:   2


  &surface hopping information
-------------------------------------------------------

    Random number:             0.44169739
    Accumulated probability:   0.00000002
    state mult  level   probability 
    1     1     1       0.00000002
    2     1     2       0.00000000

    
-------------------------------------------------------

  
  &error iter 25        
-------------------------------------------------------
  Energy   MaxStDev:          0.0000    
  Gradient MaxStDev:          0.0000    
  Nac      MaxStDev:          0.0000    
  Soc      MaxStDev:          0.0000    
-------------------------------------------------------

  Iter:       26  Ekin =           0.0562150328707237 au T =   788.95 K dt =         20 CI:   2
  Root chosen for geometry opt   2

  Gnuplot:           0.0000002493869572           0.9999997506130569        -302.9324684702713739        -302.7807932184218771        -302.7807932184218771
  **
  **
  **
  A surface hopping is not allowed
  **
  At state:   2


  &surface hopping information
-------------------------------------------------------

    Random number:             0.92455190
    Accumulated probability:   0.00000004
    state mult  level   probability 
    1     1     1       0.00000004
    2     1     2       0.00000000

    
-------------------------------------------------------

  
  &error iter 26        
-------------------------------------------------------
  Energy   MaxStDev:          0.0000    
  Gradient MaxStDev:          0.0000    
  Nac      MaxStDev:          0.0000    
  Soc      MaxStDev:          0.0000    
-------------------------------------------------------

  Iter:       27  Ekin =           0.0476015363158629 au T =   668.06 K dt =         20 CI:   2
  Root chosen for geometry opt   2

  Gnuplot:           0.0000004828718415           0.9999995171281739        -302.9232892804755011        -302.7719325431019115        -302.7719325431019115
  **
  **
  **
  A surface hopping is not allowed
  **
  At state:   2


  &surface hopping information
-------------------------------------------------------

    Random number:             0.23008996
    Accumulated probability:   0.00000006
    state mult  level   probability 
    1     1     1       0.00000006
    2     1     2       0.00000000

    
-------------------------------------------------------

  
  &error iter 27        
-------------------------------------------------------
  Energy   MaxStDev:          0.0000    
  Gradient MaxStDev:          0.0000    
  Nac      MaxStDev:          0.0000    
  Soc      MaxStDev:          0.0000    
-------------------------------------------------------

  Iter:       28  Ekin =           0.0415689660974048 au T =   583.40 K dt =         20 CI:   2
  Root chosen for geometry opt   2

  Gnuplot:           0.0000006094585391           0.9999993905414613        -302.9164658537524701        -302.7656882056973586        -302.7656882056973586
  **
  **
  **
  A surface hopping is not allowed
  **
  At state:   2


  &surface hopping information
-------------------------------------------------------

    Random number:             0.74461544
    Accumulated probability:   0.00000006
    state mult  level   probability 
    1     1     1       0.00000006
    2     1     2       0.00000000

    
-------------------------------------------------------

  
  &error iter 28        
-------------------------------------------------------
  Energy   MaxStDev:          0.0000    
  Gradient MaxStDev:          0.0000    
  Nac      MaxStDev:          0.0000    
  Soc      MaxStDev:          0.0000    
-------------------------------------------------------

  Iter:       29  Ekin =           0.0411243826477079 au T =   577.16 K dt =         20 CI:   2
  Root chosen for geometry opt   2

  Gnuplot:           0.0000006254021932           0.9999993745977918        -302.9149851656554233        -302.7652582578543843        -302.7652582578543843
  **
  **
  **
  A surface hopping is not allowed
  **
  At state:   2


  &surface hopping information
-------------------------------------------------------

    Random number:             0.47777805
    Accumulated probability:   0.00000006
    state mult  level   probability 
    1     1     1       0.00000006
    2     1     2       0.00000000

    
-------------------------------------------------------

  
  &error iter 29        
-------------------------------------------------------
  Energy   MaxStDev:          0.0000    
  Gradient MaxStDev:          0.0000    
  Nac      MaxStDev:          0.0000    
  Soc      MaxStDev:          0.0000    
-------------------------------------------------------

  Iter:       30  Ekin =           0.0460325670264180 au T =   646.04 K dt =         20 CI:   2
  Root chosen for geometry opt   2

  Gnuplot:           0.0000007173088907           0.9999992826911352        -302.9187906120229172        -302.7704038347674782        -302.7704038347674782
  **
  **
  **
  A surface hopping is not allowed
  **
  At state:   2


  &surface hopping information
-------------------------------------------------------

    Random number:             0.67112660
    Accumulated probability:   0.00000009
    state mult  level   probability 
    1     1     1       0.00000009
    2     1     2       0.00000000

    
-------------------------------------------------------

  
  &error iter 30        
-------------------------------------------------------
  Energy   MaxStDev:          0.0000    
  Gradient MaxStDev:          0.0000    
  Nac      MaxStDev:          0.0000    
  Soc      MaxStDev:          0.0000    
-------------------------------------------------------

  Iter:       31  Ekin =           0.0529216037460390 au T =   742.73 K dt =         20 CI:   2
  Root chosen for geometry opt   2

  Gnuplot:           0.0000009552564663           0.9999990447435039        -302.9248365028070680        -302.7775402137226024        -302.7775402137226024
  **
  **
  **
  A surface hopping is not allowed
  **
  At state:   2


  &surface hopping information
-------------------------------------------------------

    Random number:             0.24862377
    Accumulated probability:   0.00000013
    state mult  level   probability 
    1     1     1       0.00000013
    2     1     2       0.00000000

    
-------------------------------------------------------

  
  &error iter 31        
-------------------------------------------------------
  Energy   MaxStDev:          0.0000    
  Gradient MaxStDev:          0.0000    
  Nac      MaxStDev:          0.0000    
  Soc      MaxStDev:          0.0000    
-------------------------------------------------------

  Iter:       32  Ekin =           0.0580175595864849 au T =   814.24 K dt =         20 CI:   2
  Root chosen for geometry opt   2

  Gnuplot:           0.0000012516768073           0.9999987483231507        -302.9295416178076721        -302.7827225102301441        -302.7827225102301441
  **
  **
  **
  A surface hopping is not allowed
  **
  At state:   2


  &surface hopping information
-------------------------------------------------------

    Random number:             0.95631200
    Accumulated probability:   0.00000018
    state mult  level   probability 
    1     1     1       0.00000018
    2     1     2       0.00000000

    
-------------------------------------------------------

  
  &error iter 32        
-------------------------------------------------------
  Energy   MaxStDev:          0.0000    
  Gradient MaxStDev:          0.0000    
  Nac      MaxStDev:          0.0000    
  Soc      MaxStDev:          0.0000    
-------------------------------------------------------

  Iter:       33  Ekin =           0.0595153028908835 au T =   835.26 K dt =         20 CI:   2
  Root chosen for geometry opt   2

  Gnuplot:           0.0000014466710740           0.9999985533289646        -302.9309087108625249        -302.7841703593095986        -302.7841703593095986
  **
  **
  **
  A surface hopping is not allowed
  **
  At state:   2


  &surface hopping information
-------------------------------------------------------

    Random number:             0.03191799
    Accumulated probability:   0.00000019
    state mult  level   probability 
    1     1     1       0.00000019
    2     1     2       0.00000000

    
-------------------------------------------------------

  
  &error iter 33        
-------------------------------------------------------
  Energy   MaxStDev:          0.0000    
  Gradient MaxStDev:          0.0000    
  Nac      MaxStDev:          0.0000    
  Soc      MaxStDev:          0.0000    
-------------------------------------------------------

  Iter:       34  Ekin =           0.0577529432597044 au T =   810.53 K dt =         20 CI:   2
  Root chosen for geometry opt   2

  Gnuplot:           0.0000014565666885           0.9999985434333212        -302.9291002273304230        -302.7822850407769693        -302.7822850407769693
  **
  **
  **
  A surface hopping is not allowed
  **
  At state:   2


  &surface hopping information
-------------------------------------------------------

    Random number:             0.16200083
    Accumulated probability:   0.00000017
    state mult  level   probability 
    1     1     1       0.00000017
    2     1     2       0.00000000

    
-------------------------------------------------------

  
  &error iter 34        
-------------------------------------------------------
  Energy   MaxStDev:          0.0000    
  Gradient MaxStDev:          0.0000    
  Nac      MaxStDev:          0.0000    
  Soc      MaxStDev:          0.0000    
-------------------------------------------------------

  Iter:       35  Ekin =           0.0542946677323136 au T =   762.00 K dt =         20 CI:   2
  Root chosen for geometry opt   2

  Gnuplot:           0.0000013590561260           0.9999986409438861        -302.9256603717431631        -302.7786975041840947        -302.7786975041840947
  **
  **
  **
  A surface hopping is not allowed
  **
  At state:   2


  &surface hopping information
-------------------------------------------------------

    Random number:             0.19600947
    Accumulated probability:   0.00000015
    state mult  level   probability 
    1     1     1       0.00000015
    2     1     2       0.00000000

    
-------------------------------------------------------

  
  &error iter 35        
-------------------------------------------------------
  Energy   MaxStDev:          0.0000    
  Gradient MaxStDev:          0.0000    
  Nac      MaxStDev:          0.0000    
  Soc      MaxStDev:          0.0000    
-------------------------------------------------------

  Iter:       36  Ekin =           0.0509519411758283 au T =   715.08 K dt =         20 CI:   2
  Root chosen for geometry opt   2

  Gnuplot:           0.0000012852356847           0.9999987147642742        -302.9223396315333616        -302.7752579514329909        -302.7752579514329909
  **
  **
  **
  A surface hopping is not allowed
  **
  At state:   2


  &surface hopping information
-------------------------------------------------------

    Random number:             0.81031483
    Accumulated probability:   0.00000014
    state mult  level   probability 
    1     1     1       0.00000014
    2     1     2       0.00000000

    
-------------------------------------------------------

  
  &error iter 36        
-------------------------------------------------------
  Energy   MaxStDev:          0.0000    
  Gradient MaxStDev:          0.0000    
  Nac      MaxStDev:          0.0000    
  Soc      MaxStDev:          0.0000    
-------------------------------------------------------

  Iter:       37  Ekin =           0.0491420933807190 au T =   689.68 K dt =         20 CI:   2
  Root chosen for geometry opt   2

  Gnuplot:           0.0000012761505932           0.9999987238494441        -302.9205403559014940        -302.7733971963885438        -302.7733971963885438
  **
  **
  **
  A surface hopping is not allowed
  **
  At state:   2


  &surface hopping information
-------------------------------------------------------

    Random number:             0.44046199
    Accumulated probability:   0.00000014
    state mult  level   probability 
    1     1     1       0.00000014
    2     1     2       0.00000000

    
-------------------------------------------------------

  
  &error iter 37        
-------------------------------------------------------
  Energy   MaxStDev:          0.0000    
  Gradient MaxStDev:          0.0000    
  Nac      MaxStDev:          0.0000    
  Soc      MaxStDev:          0.0000    
-------------------------------------------------------

  Iter:       38  Ekin =           0.0496381939434523 au T =   696.64 K dt =         20 CI:   2
  Root chosen for geometry opt   2

  Gnuplot:           0.0000012976896956           0.9999987023103358        -302.9210888510672817        -302.7738849845954405        -302.7738849845954405
  **
  **
  **
  A surface hopping is not allowed
  **
  At state:   2


  &surface hopping information
-------------------------------------------------------

    Random number:             0.84750229
    Accumulated probability:   0.00000015
    state mult  level   probability 
    1     1     1       0.00000015
    2     1     2       0.00000000

    
-------------------------------------------------------

  
  &error iter 38        
-------------------------------------------------------
  Energy   MaxStDev:          0.0000    
  Gradient MaxStDev:          0.0000    
  Nac      MaxStDev:          0.0000    
  Soc      MaxStDev:          0.0000    
-------------------------------------------------------

  Iter:       39  Ekin =           0.0525775949060828 au T =   737.90 K dt =         20 CI:   2
  Root chosen for geometry opt   2

  Gnuplot:           0.0000013176250463           0.9999986823750078        -302.9241623874074207        -302.7768482571141249        -302.7768482571141249
  **
  **
  **
  A surface hopping is not allowed
  **
  At state:   2


  &surface hopping information
-------------------------------------------------------

    Random number:             0.02734078
    Accumulated probability:   0.00000016
    state mult  level   probability 
    1     1     1       0.00000016
    2     1     2       0.00000000

    
-------------------------------------------------------

  
  &error iter 39        
-------------------------------------------------------
  Energy   MaxStDev:          0.0000    
  Gradient MaxStDev:          0.0000    
  Nac      MaxStDev:          0.0000    
  Soc      MaxStDev:          0.0000    
-------------------------------------------------------

  Iter:       40  Ekin =           0.0575953986462475 au T =   808.32 K dt =         20 CI:   2
  Root chosen for geometry opt   2

  Gnuplot:           0.0000013266309202           0.9999986733690776        -302.9293945410589686        -302.7819112344935206        -302.7819112344935206
  **
  **
  **
  A surface hopping is not allowed
  **
  At state:   2


  &surface hopping information
-------------------------------------------------------

    Random number:             0.52388066
    Accumulated probability:   0.00000017
    state mult  level   probability 
    1     1     1       0.00000017
    2     1     2       0.00000000

    
-------------------------------------------------------

  
  &error iter 40        
-------------------------------------------------------
  Energy   MaxStDev:          0.0000    
  Gradient MaxStDev:          0.0000    
  Nac      MaxStDev:          0.0000    
  Soc      MaxStDev:          0.0000    
-------------------------------------------------------

  Iter:       41  Ekin =           0.0639807703388913 au T =   897.93 K dt =         20 CI:   2
  Root chosen for geometry opt   2

  Gnuplot:           0.0000013264444256           0.9999986735555240        -302.9360432585142462        -302.7883565992706281        -302.7883565992706281
  **
  **
  **
  A surface hopping is not allowed
  **
  At state:   2


  &surface hopping information
-------------------------------------------------------

    Random number:             0.83538866
    Accumulated probability:   0.00000018
    state mult  level   probability 
    1     1     1       0.00000018
    2     1     2       0.00000000

    
-------------------------------------------------------

  
  &error iter 41        
-------------------------------------------------------
  Energy   MaxStDev:          0.0000    
  Gradient MaxStDev:          0.0000    
  Nac      MaxStDev:          0.0000    
  Soc      MaxStDev:          0.0000    
-------------------------------------------------------

  Iter:       42  Ekin =           0.0707878312994126 au T =   993.47 K dt =         20 CI:   2
  Root chosen for geometry opt   2

  Gnuplot:           0.0000013030915894           0.9999986969083920        -302.9431297074416989        -302.7952371640487854        -302.7952371640487854
  **
  **
  **
  A surface hopping is not allowed
  **
  At state:   2


  &surface hopping information
-------------------------------------------------------

    Random number:             0.83534312
    Accumulated probability:   0.00000019
    state mult  level   probability 
    1     1     1       0.00000019
    2     1     2       0.00000000

    
-------------------------------------------------------

  
  &error iter 42        
-------------------------------------------------------
  Energy   MaxStDev:          0.0000    
  Gradient MaxStDev:          0.0000    
  Nac      MaxStDev:          0.0000    
  Soc      MaxStDev:          0.0000    
-------------------------------------------------------

  Iter:       43  Ekin =           0.0768691391935015 au T =  1078.82 K dt =         20 CI:   2
  Root chosen for geometry opt   2

  Gnuplot:           0.0000012149965960           0.9999987850034131        -302.9495085447123870        -302.8014107119079767        -302.8014107119079767
  **
  **
  **
  A surface hopping is not allowed
  **
  At state:   2


  &surface hopping information
-------------------------------------------------------

    Random number:             0.31050873
    Accumulated probability:   0.00000018
    state mult  level   probability 
    1     1     1       0.00000018
    2     1     2       0.00000000

    
-------------------------------------------------------

  
  &error iter 43        
-------------------------------------------------------
  Energy   MaxStDev:          0.0000    
  Gradient MaxStDev:          0.0000    
  Nac      MaxStDev:          0.0000    
  Soc      MaxStDev:          0.0000    
-------------------------------------------------------

  Iter:       44  Ekin =           0.0808720247943995 au T =  1134.99 K dt =         20 CI:   2
  Root chosen for geometry opt   2

  Gnuplot:           0.0000010259503387           0.9999989740496176        -302.9538239330133251        -302.8055149631303493        -302.8055149631303493
  **
  **
  **
  A surface hopping is not allowed
  **
  At state:   2


  &surface hopping information
-------------------------------------------------------

    Random number:             0.36726555
    Accumulated probability:   0.00000015
    state mult  level   probability 
    1     1     1       0.00000015
    2     1     2       0.00000000

    
-------------------------------------------------------

  
  &error iter 44        
-------------------------------------------------------
  Energy   MaxStDev:          0.0000    
  Gradient MaxStDev:          0.0000    
  Nac      MaxStDev:          0.0000    
  Soc      MaxStDev:          0.0000    
-------------------------------------------------------

  Iter:       45  Ekin =           0.0814509849796090 au T =  1143.12 K dt =         20 CI:   2
  Root chosen for geometry opt   2

  Gnuplot:           0.0000007341683960           0.9999992658316046        -302.9545930698092775        -302.8061591976664317        -302.8061591976664317
  **
  **
  **
  A surface hopping is not allowed
  **
  At state:   2


  &surface hopping information
-------------------------------------------------------

    Random number:             0.49291372
    Accumulated probability:   0.00000010
    state mult  level   probability 
    1     1     1       0.00000010
    2     1     2       0.00000000

    
-------------------------------------------------------

  
  &error iter 45        
-------------------------------------------------------
  Energy   MaxStDev:          0.0000    
  Gradient MaxStDev:          0.0000    
  Nac      MaxStDev:          0.0000    
  Soc      MaxStDev:          0.0000    
-------------------------------------------------------

  Iter:       46  Ekin =           0.0778127182850790 au T =  1092.06 K dt =         20 CI:   2
  Root chosen for geometry opt   2

  Gnuplot:           0.0000004192806938           0.9999995807193045        -302.9507968592394604        -302.8025169122245757        -302.8025169122245757
  **
  **
  **
  A surface hopping is not allowed
  **
  At state:   2


  &surface hopping information
-------------------------------------------------------

    Random number:             0.87132633
    Accumulated probability:   0.00000005
    state mult  level   probability 
    1     1     1       0.00000005
    2     1     2       0.00000000

    
-------------------------------------------------------

  
  &error iter 46        
-------------------------------------------------------
  Energy   MaxStDev:          0.0000    
  Gradient MaxStDev:          0.0000    
  Nac      MaxStDev:          0.0000    
  Soc      MaxStDev:          0.0000    
-------------------------------------------------------

  Iter:       47  Ekin =           0.0703427814311351 au T =   987.22 K dt =         20 CI:   2
  Root chosen for geometry opt   2

  Gnuplot:           0.0000002156795536           0.9999997843204511        -302.9426524318462839        -302.7949313290963005        -302.7949313290963005
  **
  **
  **
  A surface hopping is not allowed
  **
  At state:   2


  &surface hopping information
-------------------------------------------------------

    Random number:             0.75112122
    Accumulated probability:   0.00000002
    state mult  level   probability 
    1     1     1       0.00000002
    2     1     2       0.00000000

    
-------------------------------------------------------

  
  &error iter 47        
-------------------------------------------------------
  Energy   MaxStDev:          0.0000    
  Gradient MaxStDev:          0.0000    
  Nac      MaxStDev:          0.0000    
  Soc      MaxStDev:          0.0000    
-------------------------------------------------------

  Iter:       48  Ekin =           0.0610784877753393 au T =   857.20 K dt =         20 CI:   2
  Root chosen for geometry opt   2

  Gnuplot:           0.0000001497082641           0.9999998502917293        -302.9322833037705891        -302.7854552787936768        -302.7854552787936768
  **
  **
  **
  A surface hopping is not allowed
  **
  At state:   2


  &surface hopping information
-------------------------------------------------------

    Random number:             0.06073962
    Accumulated probability:   0.00000002
    state mult  level   probability 
    1     1     1       0.00000002
    2     1     2       0.00000000

    
-------------------------------------------------------

  
  &error iter 48        
-------------------------------------------------------
  Energy   MaxStDev:          0.0000    
  Gradient MaxStDev:          0.0000    
  Nac      MaxStDev:          0.0000    
  Soc      MaxStDev:          0.0000    
-------------------------------------------------------

  Iter:       49  Ekin =           0.0533038799334058 au T =   748.09 K dt =         20 CI:   2
  Root chosen for geometry opt   2

  Gnuplot:           0.0000001693828822           0.9999998306171136        -302.9234405120325846        -302.7774904049104521        -302.7774904049104521
  **
  **
  **
  A surface hopping is not allowed
  **
  At state:   2


  &surface hopping information
-------------------------------------------------------

    Random number:             0.49868822
    Accumulated probability:   0.00000002
    state mult  level   probability 
    1     1     1       0.00000002
    2     1     2       0.00000000

    
-------------------------------------------------------

  
  &error iter 49        
-------------------------------------------------------
  Energy   MaxStDev:          0.0000    
  Gradient MaxStDev:          0.0000    
  Nac      MaxStDev:          0.0000    
  Soc      MaxStDev:          0.0000    
-------------------------------------------------------

  Iter:       50  Ekin =           0.0498501514759182 au T =   699.62 K dt =         20 CI:   2
  Root chosen for geometry opt   2

  Gnuplot:           0.0000001916594676           0.9999998083405330        -302.9194022795418277        -302.7740016041512945        -302.7740016041512945
  **
  **
  **
  A surface hopping is not allowed
  **
  At state:   2


  &surface hopping information
-------------------------------------------------------

    Random number:             0.16322003
    Accumulated probability:   0.00000002
    state mult  level   probability 
    1     1     1       0.00000002
    2     1     2       0.00000000

    
-------------------------------------------------------

  
  &error iter 50        
-------------------------------------------------------
  Energy   MaxStDev:          0.0000    
  Gradient MaxStDev:          0.0000    
  Nac      MaxStDev:          0.0000    
  Soc      MaxStDev:          0.0000    
-------------------------------------------------------

  Iter:       51  Ekin =           0.0512185757818173 au T =   718.82 K dt =         20 CI:   2
  Root chosen for geometry opt   2

  Gnuplot:           0.0000001155298238           0.9999998844701778        -302.9206232113918986        -302.7755256177231900        -302.7755256177231900
  **
  **
  **
  A surface hopping is not allowed
  **
  At state:   2


  &surface hopping information
-------------------------------------------------------

    Random number:             0.63735676
    Accumulated probability:   0.00000001
    state mult  level   probability 
    1     1     1       0.00000001
    2     1     2       0.00000000

    
-------------------------------------------------------

  
  &error iter 51        
-------------------------------------------------------
  Energy   MaxStDev:          0.0000    
  Gradient MaxStDev:          0.0000    
  Nac      MaxStDev:          0.0000    
  Soc      MaxStDev:          0.0000    
-------------------------------------------------------

  Iter:       52  Ekin =           0.0551113431033902 au T =   773.46 K dt =         20 CI:   2
  Root chosen for geometry opt   2

  Gnuplot:           0.0000000205816657           0.9999999794183339        -302.9244062096436210        -302.7796590180907401        -302.7796590180907401
  **
  **
  **
  A surface hopping is not allowed
  **
  At state:   2


  &surface hopping information
-------------------------------------------------------

    Random number:             0.82653016
    Accumulated probability:   0.00000000
    state mult  level   probability 
    1     1     1       0.00000000
    2     1     2       0.00000000

    
-------------------------------------------------------

  
  &error iter 52        
-------------------------------------------------------
  Energy   MaxStDev:          0.0000    
  Gradient MaxStDev:          0.0000    
  Nac      MaxStDev:          0.0000    
  Soc      MaxStDev:          0.0000    
-------------------------------------------------------

  Iter:       53  Ekin =           0.0580342399669896 au T =   814.48 K dt =         20 CI:   2
  Root chosen for geometry opt   2

  Gnuplot:           0.0000000055276804           0.9999999944723195        -302.9270576956462833        -302.7827108707492130        -302.7827108707492130
  **
  **
  **
  A surface hopping is not allowed
  **
  At state:   2


  &surface hopping information
-------------------------------------------------------

    Random number:             0.29489470
    Accumulated probability:   0.00000000
    state mult  level   probability 
    1     1     1       0.00000000
    2     1     2       0.00000000

    
-------------------------------------------------------

  
  &error iter 53        
-------------------------------------------------------
  Energy   MaxStDev:          0.0000    
  Gradient MaxStDev:          0.0000    
  Nac      MaxStDev:          0.0000    
  Soc      MaxStDev:          0.0000    
-------------------------------------------------------

  Iter:       54  Ekin =           0.0578434609414733 au T =   811.80 K dt =         20 CI:   2
  Root chosen for geometry opt   2

  Gnuplot:           0.0000000354166770           0.9999999645833242        -302.9265495847514558        -302.7824707050752977        -302.7824707050752977
  **
  **
  **
  A surface hopping is not allowed
  **
  At state:   2


  &surface hopping information
-------------------------------------------------------

    Random number:             0.39012530
    Accumulated probability:   0.00000001
    state mult  level   probability 
    1     1     1       0.00000001
    2     1     2       0.00000000

    
-------------------------------------------------------

  
  &error iter 54        
-------------------------------------------------------
  Energy   MaxStDev:          0.0000    
  Gradient MaxStDev:          0.0000    
  Nac      MaxStDev:          0.0000    
  Soc      MaxStDev:          0.0000    
-------------------------------------------------------

  Iter:       55  Ekin =           0.0547598077436181 au T =   768.52 K dt =         20 CI:   2
  Root chosen for geometry opt   2

  Gnuplot:           0.0000000884337104           0.9999999115662916        -302.9231226187355901        -302.7792554895983699        -302.7792554895983699
  **
  **
  **
  A surface hopping is not allowed
  **
  At state:   2


  &surface hopping information
-------------------------------------------------------

    Random number:             0.23563835
    Accumulated probability:   0.00000001
    state mult  level   probability 
    1     1     1       0.00000001
    2     1     2       0.00000000

    
-------------------------------------------------------

  
  &error iter 55        
-------------------------------------------------------
  Energy   MaxStDev:          0.0000    
  Gradient MaxStDev:          0.0000    
  Nac      MaxStDev:          0.0000    
  Soc      MaxStDev:          0.0000    
-------------------------------------------------------

  Iter:       56  Ekin =           0.0503671471183131 au T =   706.88 K dt =         20 CI:   2
  Root chosen for geometry opt   2

  Gnuplot:           0.0000001800663324           0.9999998199336630        -302.9182034107299160        -302.7747423998172280        -302.7747423998172280
  **
  **
  **
  A surface hopping is not allowed
  **
  At state:   2


  &surface hopping information
-------------------------------------------------------

    Random number:             0.38442123
    Accumulated probability:   0.00000003
    state mult  level   probability 
    1     1     1       0.00000003
    2     1     2       0.00000000

    
-------------------------------------------------------

  
  &error iter 56        
-------------------------------------------------------
  Energy   MaxStDev:          0.0000    
  Gradient MaxStDev:          0.0000    
  Nac      MaxStDev:          0.0000    
  Soc      MaxStDev:          0.0000    
-------------------------------------------------------

  Iter:       57  Ekin =           0.0463289448378111 au T =   650.20 K dt =         20 CI:   2
  Root chosen for geometry opt   2

  Gnuplot:           0.0000003522563334           0.9999996477436639        -302.9133856973427328        -302.7706267922158077        -302.7706267922158077
  **
  **
  **
  A surface hopping is not allowed
  **
  At state:   2


  &surface hopping information
-------------------------------------------------------

    Random number:             0.86853385
    Accumulated probability:   0.00000005
    state mult  level   probability 
    1     1     1       0.00000005
    2     1     2       0.00000000

    
-------------------------------------------------------

  
  &error iter 57        
-------------------------------------------------------
  Energy   MaxStDev:          0.0000    
  Gradient MaxStDev:          0.0000    
  Nac      MaxStDev:          0.0000    
  Soc      MaxStDev:          0.0000    
-------------------------------------------------------

  Iter:       58  Ekin =           0.0438003800078410 au T =   614.71 K dt =         20 CI:   2
  Root chosen for geometry opt   2

  Gnuplot:           0.0000006504080689           0.9999993495919171        -302.9099271480102402        -302.7680617396654839        -302.7680617396654839
  **
  **
  **
  A surface hopping is not allowed
  **
  At state:   2


  &surface hopping information
-------------------------------------------------------

    Random number:             0.26602650
    Accumulated probability:   0.00000008
    state mult  level   probability 
    1     1     1       0.00000008
    2     1     2       0.00000000

    
-------------------------------------------------------

  
  &error iter 58        
-------------------------------------------------------
  Energy   MaxStDev:          0.0000    
  Gradient MaxStDev:          0.0000    
  Nac      MaxStDev:          0.0000    
  Soc      MaxStDev:          0.0000    
-------------------------------------------------------

  Iter:       59  Ekin =           0.0433543749369915 au T =   608.45 K dt =         20 CI:   2
  Root chosen for geometry opt   2

  Gnuplot:           0.0000010777179146           0.9999989222820886        -302.9085526642628565        -302.7676114998571393        -302.7676114998571393
  **
  **
  **
  A surface hopping is not allowed
  **
  At state:   2


  &surface hopping information
-------------------------------------------------------

    Random number:             0.39126256
    Accumulated probability:   0.00000013
    state mult  level   probability 
    1     1     1       0.00000013
    2     1     2       0.00000000

    
-------------------------------------------------------

  
  &error iter 59        
-------------------------------------------------------
  Energy   MaxStDev:          0.0000    
  Gradient MaxStDev:          0.0000    
  Nac      MaxStDev:          0.0000    
  Soc      MaxStDev:          0.0000    
-------------------------------------------------------

  Iter:       60  Ekin =           0.0450713708226030 au T =   632.55 K dt =         20 CI:   2
  Root chosen for geometry opt   2

  Gnuplot:           0.0000015916321018           0.9999984083679010        -302.9094398726317081        -302.7693489742030692        -302.7693489742030692
  **
  **
  **
  A surface hopping is not allowed
  **
  At state:   2


  &surface hopping information
-------------------------------------------------------

    Random number:             0.86737633
    Accumulated probability:   0.00000019
    state mult  level   probability 
    1     1     1       0.00000019
    2     1     2       0.00000000

    
-------------------------------------------------------

  
  &error iter 60        
-------------------------------------------------------
  Energy   MaxStDev:          0.0000    
  Gradient MaxStDev:          0.0000    
  Nac      MaxStDev:          0.0000    
  Soc      MaxStDev:          0.0000    
-------------------------------------------------------

  Iter:       61  Ekin =           0.0486612034207608 au T =   682.93 K dt =         20 CI:   2
  Root chosen for geometry opt   2

  Gnuplot:           0.0000021012482879           0.9999978987516442        -302.9123387706100630        -302.7729735007532099        -302.7729735007532099
  **
  **
  **
  A surface hopping is not allowed
  **
  At state:   2


  &surface hopping information
-------------------------------------------------------

    Random number:             0.87273532
    Accumulated probability:   0.00000025
    state mult  level   probability 
    1     1     1       0.00000025
    2     1     2       0.00000000

    
-------------------------------------------------------

  
  &error iter 61        
-------------------------------------------------------
  Energy   MaxStDev:          0.0000    
  Gradient MaxStDev:          0.0000    
  Nac      MaxStDev:          0.0000    
  Soc      MaxStDev:          0.0000    
-------------------------------------------------------

  Iter:       62  Ekin =           0.0536278388757815 au T =   752.64 K dt =         20 CI:   2
  Root chosen for geometry opt   2

  Gnuplot:           0.0000024738164946           0.9999975261835061        -302.9167583930095589        -302.7779752622795399        -302.7779752622795399
  **
  **
  **
  A surface hopping is not allowed
  **
  At state:   2


  &surface hopping information
-------------------------------------------------------

    Random number:             0.11751797
    Accumulated probability:   0.00000030
    state mult  level   probability 
    1     1     1       0.00000030
    2     1     2       0.00000000

    
-------------------------------------------------------

  
  &error iter 62        
-------------------------------------------------------
  Energy   MaxStDev:          0.0000    
  Gradient MaxStDev:          0.0000    
  Nac      MaxStDev:          0.0000    
  Soc      MaxStDev:          0.0000    
-------------------------------------------------------

  Iter:       63  Ekin =           0.0594486306957097 au T =   834.33 K dt =         20 CI:   2
  Root chosen for geometry opt   2

  Gnuplot:           0.0000025910912078           0.9999974089087118        -302.9221181649665482        -302.7838269822859729        -302.7838269822859729
  **
  **
  **
  A surface hopping is not allowed
  **
  At state:   2


  &surface hopping information
-------------------------------------------------------

    Random number:             0.19332297
    Accumulated probability:   0.00000032
    state mult  level   probability 
    1     1     1       0.00000032
    2     1     2       0.00000000

    
-------------------------------------------------------

  
  &error iter 63        
-------------------------------------------------------
  Energy   MaxStDev:          0.0000    
  Gradient MaxStDev:          0.0000    
  Nac      MaxStDev:          0.0000    
  Soc      MaxStDev:          0.0000    
-------------------------------------------------------

  Iter:       64  Ekin =           0.0656128578726050 au T =   920.84 K dt =         20 CI:   2
  Root chosen for geometry opt   2

  Gnuplot:           0.0000024414798607           0.9999975585201355        -302.9277727230602864        -302.7900359930081891        -302.7900359930081891
  **
  **
  **
  A surface hopping is not allowed
  **
  At state:   2


  &surface hopping information
-------------------------------------------------------

    Random number:             0.74706012
    Accumulated probability:   0.00000030
    state mult  level   probability 
    1     1     1       0.00000030
    2     1     2       0.00000000

    
-------------------------------------------------------

  
  &error iter 64        
-------------------------------------------------------
  Energy   MaxStDev:          0.0000    
  Gradient MaxStDev:          0.0000    
  Nac      MaxStDev:          0.0000    
  Soc      MaxStDev:          0.0000    
-------------------------------------------------------

  Iter:       65  Ekin =           0.0713948811118952 au T =  1001.99 K dt =         20 CI:   2
  Root chosen for geometry opt   2

  Gnuplot:           0.0000021349402563           0.9999978650596404        -302.9329061622319728        -302.7959050151803240        -302.7959050151803240
  **
  **
  **
  A surface hopping is not allowed
  **
  At state:   2


  &surface hopping information
-------------------------------------------------------

    Random number:             0.24655974
    Accumulated probability:   0.00000027
    state mult  level   probability 
    1     1     1       0.00000027
    2     1     2       0.00000000

    
-------------------------------------------------------

  
  &error iter 65        
-------------------------------------------------------
  Energy   MaxStDev:          0.0000    
  Gradient MaxStDev:          0.0000    
  Nac      MaxStDev:          0.0000    
  Soc      MaxStDev:          0.0000    
-------------------------------------------------------

  Iter:       66  Ekin =           0.0755902983259308 au T =  1060.87 K dt =         20 CI:   2
  Root chosen for geometry opt   2

  Gnuplot:           0.0000018157181420           0.9999981842818215        -302.9364184955817905        -302.8002139887748854        -302.8002139887748854
  **
  **
  **
  A surface hopping is not allowed
  **
  At state:   2


  &surface hopping information
-------------------------------------------------------

    Random number:             0.21946178
    Accumulated probability:   0.00000023
    state mult  level   probability 
    1     1     1       0.00000023
    2     1     2       0.00000000

    
-------------------------------------------------------

  
  &error iter 66        
-------------------------------------------------------
  Energy   MaxStDev:          0.0000    
  Gradient MaxStDev:          0.0000    
  Nac      MaxStDev:          0.0000    
  Soc      MaxStDev:          0.0000    
-------------------------------------------------------

  Iter:       67  Ekin =           0.0768281865656125 au T =  1078.24 K dt =         20 CI:   2
  Root chosen for geometry opt   2

  Gnuplot:           0.0000015505047977           0.9999984494952514        -302.9370608406595125        -302.8015065583673504        -302.8015065583673504
  **
  **
  **
  A surface hopping is not allowed
  **
  At state:   2


  &surface hopping information
-------------------------------------------------------

    Random number:             0.99920124
    Accumulated probability:   0.00000020
    state mult  level   probability 
    1     1     1       0.00000020
    2     1     2       0.00000000

    
-------------------------------------------------------

  
  &error iter 67        
-------------------------------------------------------
  Energy   MaxStDev:          0.0000    
  Gradient MaxStDev:          0.0000    
  Nac      MaxStDev:          0.0000    
  Soc      MaxStDev:          0.0000    
-------------------------------------------------------

  Iter:       68  Ekin =           0.0746206801608768 au T =  1047.26 K dt =         20 CI:   2
  Root chosen for geometry opt   2

  Gnuplot:           0.0000012343142970           0.9999987656857456        -302.9341041225462163        -302.7992287877380022        -302.7992287877380022
  **
  **
  **
  A surface hopping is not allowed
  **
  At state:   2


  &surface hopping information
-------------------------------------------------------

    Random number:             0.73272729
    Accumulated probability:   0.00000014
    state mult  level   probability 
    1     1     1       0.00000014
    2     1     2       0.00000000

    
-------------------------------------------------------

  
  &error iter 68        
-------------------------------------------------------
  Energy   MaxStDev:          0.0000    
  Gradient MaxStDev:          0.0000    
  Nac      MaxStDev:          0.0000    
  Soc      MaxStDev:          0.0000    
-------------------------------------------------------

  Iter:       69  Ekin =           0.0701356089041318 au T =   984.31 K dt =         20 CI:   2
  Root chosen for geometry opt   2

  Gnuplot:           0.0000008373620208           0.9999991626380051        -302.9284120022141451        -302.7945836213016833        -302.7945836213016833
  **
  **
  **
  A surface hopping is not allowed
  **
  At state:   2


  &surface hopping information
-------------------------------------------------------

    Random number:             0.93929583
    Accumulated probability:   0.00000008
    state mult  level   probability 
    1     1     1       0.00000008
    2     1     2       0.00000000

    
-------------------------------------------------------

  
  &error iter 69        
-------------------------------------------------------
  Energy   MaxStDev:          0.0000    
  Gradient MaxStDev:          0.0000    
  Nac      MaxStDev:          0.0000    
  Soc      MaxStDev:          0.0000    
-------------------------------------------------------

  Iter:       70  Ekin =           0.0658207672031584 au T =   923.76 K dt =         20 CI:   2
  Root chosen for geometry opt   2

  Gnuplot:           0.0000004730141576           0.9999995269858459        -302.9226142056401727        -302.7901021610506973        -302.7901021610506973
  **
  **
  **
  A surface hopping is not allowed
  **
  At state:   2


  &surface hopping information
-------------------------------------------------------

    Random number:             0.88738877
    Accumulated probability:   0.00000004
    state mult  level   probability 
    1     1     1       0.00000004
    2     1     2       0.00000000

    
-------------------------------------------------------

  
  &error iter 70        
-------------------------------------------------------
  Energy   MaxStDev:          0.0000    
  Gradient MaxStDev:          0.0000    
  Nac      MaxStDev:          0.0000    
  Soc      MaxStDev:          0.0000    
-------------------------------------------------------

  Iter:       71  Ekin =           0.0640304086039324 au T =   898.63 K dt =         20 CI:   2
  Root chosen for geometry opt   2

  Gnuplot:           0.0000001877871060           0.9999998122128915        -302.9195229918645964        -302.7882715986174276        -302.7882715986174276
  **
  **
  **
  A surface hopping is not allowed
  **
  At state:   2


  &surface hopping information
-------------------------------------------------------

    Random number:             0.21293491
    Accumulated probability:   0.00000001
    state mult  level   probability 
    1     1     1       0.00000001
    2     1     2       0.00000000

    
-------------------------------------------------------

  
  &error iter 71        
-------------------------------------------------------
  Energy   MaxStDev:          0.0000    
  Gradient MaxStDev:          0.0000    
  Nac      MaxStDev:          0.0000    
  Soc      MaxStDev:          0.0000    
-------------------------------------------------------

  Iter:       72  Ekin =           0.0653056342261479 au T =   916.53 K dt =         20 CI:   2
  Root chosen for geometry opt   2

  Gnuplot:           0.0000000345190362           0.9999999654809635        -302.9198372887839810        -302.7896723539471964        -302.7896723539471964
  **
  **
  **
  A surface hopping is not allowed
  **
  At state:   2


  &surface hopping information
-------------------------------------------------------

    Random number:             0.67282635
    Accumulated probability:   0.00000000
    state mult  level   probability 
    1     1     1       0.00000000
    2     1     2       0.00000000

    
[...]
  **
  **
  **
  A surface hopping is not allowed
  **
  At state:   1


  &surface hopping information
-------------------------------------------------------

    Random number:             0.64501590
    Accumulated probability:   0.00000000
    state mult  level   probability 
    1     1     1       0.00000000
    2     1     2       0.00000000

    
-------------------------------------------------------

  
  &error iter 1981      
-------------------------------------------------------
  Energy   MaxStDev:          0.0000    
  Gradient MaxStDev:          0.0000    
  Nac      MaxStDev:          0.0000    
  Soc      MaxStDev:          0.0000    
-------------------------------------------------------

  Iter:     1982  Ekin =           0.2130984827053784 au T =  2990.72 K dt =         20 CI:   2
  Root chosen for geometry opt   1

  Gnuplot:           0.9999999999040788           0.0000000000959212        -302.9376163110497373        -302.6882123145535388        -302.9376163110497373
  **
  **
  **
  A surface hopping is not allowed
  **
  At state:   1


  &surface hopping information
-------------------------------------------------------

    Random number:             0.45798120
    Accumulated probability:   0.00000000
    state mult  level   probability 
    1     1     1       0.00000000
    2     1     2       0.00000000

    
-------------------------------------------------------

  
  &error iter 1982      
-------------------------------------------------------
  Energy   MaxStDev:          0.0000    
  Gradient MaxStDev:          0.0000    
  Nac      MaxStDev:          0.0000    
  Soc      MaxStDev:          0.0000    
-------------------------------------------------------

  Iter:     1983  Ekin =           0.2183968822283459 au T =  3065.08 K dt =         20 CI:   2
  Root chosen for geometry opt   1

  Gnuplot:           0.9999999674966986           0.0000000325033028        -302.9430869135479156        -302.6930877799084669        -302.9430869135479156
  **
  **
  **
  A surface hopping is not allowed
  **
  At state:   1


  &surface hopping information
-------------------------------------------------------

    Random number:             0.44864148
    Accumulated probability:   0.00000002
    state mult  level   probability 
    1     1     1       0.00000000
    2     1     2       0.00000002

    
-------------------------------------------------------

  
  &error iter 1983      
-------------------------------------------------------
  Energy   MaxStDev:          0.0000    
  Gradient MaxStDev:          0.0000    
  Nac      MaxStDev:          0.0000    
  Soc      MaxStDev:          0.0000    
-------------------------------------------------------

  Iter:     1984  Ekin =           0.2244037814560016 au T =  3149.38 K dt =         20 CI:   2
  Root chosen for geometry opt   1

  Gnuplot:           0.9999997172844246           0.0000002827155756        -302.9492740534871018        -302.6996571612845628        -302.9492740534871018
  **
  **
  **
  A surface hopping is not allowed
  **
  At state:   1


  &surface hopping information
-------------------------------------------------------

    Random number:             0.06647816
    Accumulated probability:   0.00000017
    state mult  level   probability 
    1     1     1       0.00000000
    2     1     2       0.00000017

    
-------------------------------------------------------

  
  &error iter 1984      
-------------------------------------------------------
  Energy   MaxStDev:          0.0000    
  Gradient MaxStDev:          0.0000    
  Nac      MaxStDev:          0.0000    
  Soc      MaxStDev:          0.0000    
-------------------------------------------------------

  Iter:     1985  Ekin =           0.2284934679086544 au T =  3206.78 K dt =         20 CI:   2
  Root chosen for geometry opt   1

  Gnuplot:           0.9999990461665220           0.0000009538335271        -302.9534279268651744        -302.7047855846825541        -302.9534279268651744
  **
  **
  **
  A surface hopping is not allowed
  **
  At state:   1


  &surface hopping information
-------------------------------------------------------

    Random number:             0.79867232
    Accumulated probability:   0.00000055
    state mult  level   probability 
    1     1     1       0.00000000
    2     1     2       0.00000055

    
-------------------------------------------------------

  
  &error iter 1985      
-------------------------------------------------------
  Energy   MaxStDev:          0.0000    
  Gradient MaxStDev:          0.0000    
  Nac      MaxStDev:          0.0000    
  Soc      MaxStDev:          0.0000    
-------------------------------------------------------

  Iter:     1986  Ekin =           0.2294777783634606 au T =  3220.59 K dt =         20 CI:   2
  Root chosen for geometry opt   1

  Gnuplot:           0.9999983484281074           0.0000016515718680        -302.9543716103613065        -302.7065973872295785        -302.9543716103613065
  **
  **
  **
  A surface hopping is not allowed
  **
  At state:   1


  &surface hopping information
-------------------------------------------------------

    Random number:             0.98079145
    Accumulated probability:   0.00000090
    state mult  level   probability 
    1     1     1       0.00000000
    2     1     2       0.00000090

    
-------------------------------------------------------

  
  &error iter 1986      
-------------------------------------------------------
  Energy   MaxStDev:          0.0000    
  Gradient MaxStDev:          0.0000    
  Nac      MaxStDev:          0.0000    
  Soc      MaxStDev:          0.0000    
-------------------------------------------------------

  Iter:     1987  Ekin =           0.2277833198358555 au T =  3196.81 K dt =         20 CI:   2
  Root chosen for geometry opt   1

  Gnuplot:           0.9999983482059633           0.0000016517940296        -302.9525777929675314        -302.7051681878054410        -302.9525777929675314
  **
  **
  **
  A surface hopping is not allowed
  **
  At state:   1


  &surface hopping information
-------------------------------------------------------

    Random number:             0.32165313
    Accumulated probability:   0.00000084
    state mult  level   probability 
    1     1     1       0.00000000
    2     1     2       0.00000084

    
-------------------------------------------------------

  
  &error iter 1987      
-------------------------------------------------------
  Energy   MaxStDev:          0.0000    
  Gradient MaxStDev:          0.0000    
  Nac      MaxStDev:          0.0000    
  Soc      MaxStDev:          0.0000    
-------------------------------------------------------

  Iter:     1988  Ekin =           0.2248737922349584 au T =  3155.98 K dt =         20 CI:   2
  Root chosen for geometry opt   1

  Gnuplot:           0.9999989340242337           0.0000010659757240        -302.9495430312015287        -302.7024030621888642        -302.9495430312015287
  **
  **
  **
  A surface hopping is not allowed
  **
  At state:   1


  &surface hopping information
-------------------------------------------------------

    Random number:             0.78811175
    Accumulated probability:   0.00000050
    state mult  level   probability 
    1     1     1       0.00000000
    2     1     2       0.00000050

    
-------------------------------------------------------

  
  &error iter 1988      
-------------------------------------------------------
  Energy   MaxStDev:          0.0000    
  Gradient MaxStDev:          0.0000    
  Nac      MaxStDev:          0.0000    
  Soc      MaxStDev:          0.0000    
-------------------------------------------------------

  Iter:     1989  Ekin =           0.2225275017559209 au T =  3123.05 K dt =         20 CI:   2
  Root chosen for geometry opt   1

  Gnuplot:           0.9999994605740881           0.0000005394259103        -302.9471125534284397        -302.7008830557190322        -302.9471125534284397
  **
  **
  **
  A surface hopping is not allowed
  **
  At state:   1


  &surface hopping information
-------------------------------------------------------

    Random number:             0.90338302
    Accumulated probability:   0.00000024
    state mult  level   probability 
    1     1     1       0.00000000
    2     1     2       0.00000024

    
-------------------------------------------------------

  
  &error iter 1989      
-------------------------------------------------------
  Energy   MaxStDev:          0.0000    
  Gradient MaxStDev:          0.0000    
  Nac      MaxStDev:          0.0000    
  Soc      MaxStDev:          0.0000    
-------------------------------------------------------

  Iter:     1990  Ekin =           0.2218480966609288 au T =  3113.52 K dt =         20 CI:   2
  Root chosen for geometry opt   1

  Gnuplot:           0.9999997422495994           0.0000002577503980        -302.9464529944444280        -302.7021148334764575        -302.9464529944444280
  **
  **
  **
  A surface hopping is not allowed
  **
  At state:   1


  &surface hopping information
-------------------------------------------------------

    Random number:             0.69175953
    Accumulated probability:   0.00000011
    state mult  level   probability 
    1     1     1       0.00000000
    2     1     2       0.00000011

    
-------------------------------------------------------

  
  &error iter 1990      
-------------------------------------------------------
  Energy   MaxStDev:          0.0000    
  Gradient MaxStDev:          0.0000    
  Nac      MaxStDev:          0.0000    
  Soc      MaxStDev:          0.0000    
-------------------------------------------------------

  Iter:     1991  Ekin =           0.2225670472096614 au T =  3123.61 K dt =         20 CI:   2
  Root chosen for geometry opt   1

  Gnuplot:           0.9999999071838275           0.0000000928161713        -302.9472622834088043        -302.7056380172578542        -302.9472622834088043
  **
  **
  **
  A surface hopping is not allowed
  **
  At state:   1


  &surface hopping information
-------------------------------------------------------

    Random number:             0.03988383
    Accumulated probability:   0.00000004
    state mult  level   probability 
    1     1     1       0.00000000
    2     1     2       0.00000004

    
-------------------------------------------------------

  
  &error iter 1991      
-------------------------------------------------------
  Energy   MaxStDev:          0.0000    
  Gradient MaxStDev:          0.0000    
  Nac      MaxStDev:          0.0000    
  Soc      MaxStDev:          0.0000    
-------------------------------------------------------

  Iter:     1992  Ekin =           0.2234695416491595 au T =  3136.27 K dt =         20 CI:   2
  Root chosen for geometry opt   1

  Gnuplot:           0.9999999935387613           0.0000000064612388        -302.9482391908831005        -302.7096811703368076        -302.9482391908831005
  **
  **
  **
  A surface hopping is not allowed
  **
  At state:   1


  &surface hopping information
-------------------------------------------------------

    Random number:             0.53074545
    Accumulated probability:   0.00000000
    state mult  level   probability 
    1     1     1       0.00000000
    2     1     2       0.00000000

    
-------------------------------------------------------

  
  &error iter 1992      
-------------------------------------------------------
  Energy   MaxStDev:          0.0000    
  Gradient MaxStDev:          0.0000    
  Nac      MaxStDev:          0.0000    
  Soc      MaxStDev:          0.0000    
-------------------------------------------------------

  Iter:     1993  Ekin =           0.2234709225350193 au T =  3136.29 K dt =         20 CI:   2
  Root chosen for geometry opt   1

  Gnuplot:           0.9999999860211153           0.0000000139788851        -302.9482603762889426        -302.7124966264382238        -302.9482603762889426
  **
  **
  **
  A surface hopping is not allowed
  **
  At state:   1


  &surface hopping information
-------------------------------------------------------

    Random number:             0.43270925
    Accumulated probability:   0.00000001
    state mult  level   probability 
    1     1     1       0.00000000
    2     1     2       0.00000001

    
-------------------------------------------------------

  
  &error iter 1993      
-------------------------------------------------------
  Energy   MaxStDev:          0.0000    
  Gradient MaxStDev:          0.0000    
  Nac      MaxStDev:          0.0000    
  Soc      MaxStDev:          0.0000    
-------------------------------------------------------

  Iter:     1994  Ekin =           0.2222237766408855 au T =  3118.79 K dt =         20 CI:   2
  Root chosen for geometry opt   1

  Gnuplot:           0.9999999502154537           0.0000000497845450        -302.9469958143557733        -302.7133105129908017        -302.9469958143557733
  **
  **
  **
  A surface hopping is not allowed
  **
  At state:   1


  &surface hopping information
-------------------------------------------------------

    Random number:             0.41259766
    Accumulated probability:   0.00000003
    state mult  level   probability 
    1     1     1       0.00000000
    2     1     2       0.00000003

    
-------------------------------------------------------

  
  &error iter 1994      
-------------------------------------------------------
  Energy   MaxStDev:          0.0000    
  Gradient MaxStDev:          0.0000    
  Nac      MaxStDev:          0.0000    
  Soc      MaxStDev:          0.0000    
-------------------------------------------------------

  Iter:     1995  Ekin =           0.2201025564799390 au T =  3089.02 K dt =         20 CI:   2
  Root chosen for geometry opt   1

  Gnuplot:           0.9999999159718485           0.0000000840281534        -302.9448178146743658        -302.7127238260287641        -302.9448178146743658
  **
  **
  **
  A surface hopping is not allowed
  **
  At state:   1


  &surface hopping information
-------------------------------------------------------

    Random number:             0.93951470
    Accumulated probability:   0.00000004
    state mult  level   probability 
    1     1     1       0.00000000
    2     1     2       0.00000004

    
-------------------------------------------------------

  
  &error iter 1995      
-------------------------------------------------------
  Energy   MaxStDev:          0.0000    
  Gradient MaxStDev:          0.0000    
  Nac      MaxStDev:          0.0000    
  Soc      MaxStDev:          0.0000    
-------------------------------------------------------

  Iter:     1996  Ekin =           0.2180823994113850 au T =  3060.67 K dt =         20 CI:   2
  Root chosen for geometry opt   1

  Gnuplot:           0.9999999262227846           0.0000000737772178        -302.9427238033630942        -302.7121620754637661        -302.9427238033630942
  **
  **
  **
  A surface hopping is not allowed
  **
  At state:   1


  &surface hopping information
-------------------------------------------------------

    Random number:             0.79703617
    Accumulated probability:   0.00000003
    state mult  level   probability 
    1     1     1       0.00000000
    2     1     2       0.00000003

    
-------------------------------------------------------

  
  &error iter 1996      
-------------------------------------------------------
  Energy   MaxStDev:          0.0000    
  Gradient MaxStDev:          0.0000    
  Nac      MaxStDev:          0.0000    
  Soc      MaxStDev:          0.0000    
-------------------------------------------------------

  Iter:     1997  Ekin =           0.2171930135958144 au T =  3048.18 K dt =         20 CI:   2
  Root chosen for geometry opt   1

  Gnuplot:           0.9999999713090197           0.0000000286909802        -302.9418326279258054        -302.7128891188420994        -302.9418326279258054
  **
  **
  **
  A surface hopping is not allowed
  **
  At state:   1


  &surface hopping information
-------------------------------------------------------

    Random number:             0.37998524
    Accumulated probability:   0.00000001
    state mult  level   probability 
    1     1     1       0.00000000
    2     1     2       0.00000001

    
-------------------------------------------------------

  
  &error iter 1997      
-------------------------------------------------------
  Energy   MaxStDev:          0.0000    
  Gradient MaxStDev:          0.0000    
  Nac      MaxStDev:          0.0000    
  Soc      MaxStDev:          0.0000    
-------------------------------------------------------

  Iter:     1998  Ekin =           0.2174664903591919 au T =  3052.02 K dt =         20 CI:   2
  Root chosen for geometry opt   1

  Gnuplot:           0.9999999941065285           0.0000000058934714        -302.9422071804025336        -302.7151593983005569        -302.9422071804025336
  **
  **
  **
  A surface hopping is not allowed
  **
  At state:   1


  &surface hopping information
-------------------------------------------------------

    Random number:             0.30053672
    Accumulated probability:   0.00000000
    state mult  level   probability 
    1     1     1       0.00000000
    2     1     2       0.00000000

    
-------------------------------------------------------

  
  &error iter 1998      
-------------------------------------------------------
  Energy   MaxStDev:          0.0000    
  Gradient MaxStDev:          0.0000    
  Nac      MaxStDev:          0.0000    
  Soc      MaxStDev:          0.0000    
-------------------------------------------------------

  Iter:     1999  Ekin =           0.2175933816186550 au T =  3053.80 K dt =         20 CI:   2
  Root chosen for geometry opt   1

  Gnuplot:           0.9999999923942164           0.0000000076057840        -302.9424601842345055        -302.7175802341773192        -302.9424601842345055
  **
  **
  **
  A surface hopping is not allowed
  **
  At state:   1


  &surface hopping information
-------------------------------------------------------

    Random number:             0.23205863
    Accumulated probability:   0.00000000
    state mult  level   probability 
    1     1     1       0.00000000
    2     1     2       0.00000000

    
-------------------------------------------------------

  
  &error iter 1999      
-------------------------------------------------------
  Energy   MaxStDev:          0.0000    
  Gradient MaxStDev:          0.0000    
  Nac      MaxStDev:          0.0000    
  Soc      MaxStDev:          0.0000    
-------------------------------------------------------

  Iter:     2000  Ekin =           0.2159665902336729 au T =  3030.97 K dt =         20 CI:   2
  Root chosen for geometry opt   1

  Gnuplot:           0.9999998426348782           0.0000001573651171        -302.9408674532417649        -302.7179332057468173        -302.9408674532417649
  **
  **
  **
  A surface hopping is not allowed
  **
  At state:   1


  &surface hopping information
-------------------------------------------------------

    Random number:             0.02354602
    Accumulated probability:   0.00000009
    state mult  level   probability 
    1     1     1       0.00000000
    2     1     2       0.00000009

    
-------------------------------------------------------

  
  &error iter 2000      
-------------------------------------------------------
  Energy   MaxStDev:          0.0000    
  Gradient MaxStDev:          0.0000    
  Nac      MaxStDev:          0.0000    
  Soc      MaxStDev:          0.0000    
-------------------------------------------------------


Nonadiabatic Molecular Dynamics End:  2026-02-25 10:53:37 Total:     0 days     0 hours     6 minutes    40 seconds
