Nonadiabatic Molecular Dynamics Start:  2026-02-25 10:46:56


  -------------------------------------------------------------------
                              /\
   |\    /|                  /++\
   ||\  /||                 /++++\
   || \/ || ||             /++++++\
   ||    || ||            /PyRAI2MD\
   ||    || ||           /++++++++++\                    __
            ||          /++++++++++++\    |\ |  /\  |\/| | \
            ||__ __    *==============*   | \| /--\ |  | |_/

                          Python Rapid
                     Artificial Intelligence
                  Ab Initio Molecular Dynamics



                      Author @Jingbai Li
                      
                      
    2022 – present   Hoffmann Institute of Advanced Materials
                     Shenzhen Polytechnic, Shenzhen, China    
                                
    2019 – 2022      Department of Chemistry and Chemical Biology
                     Northeastern University, Boston, USA

                          version:   2.5.1

  With contributions from (in alphabetic order):
    Jingbai Li     - Fewest switches surface hopping
                     Zhu-Nakamura surface hopping
                     Velocity Verlet
                     OpenMolcas interface
                     OpenMolcas/Tinker interface
                     BAGEL interface
                     ORCA interface
                     OpenQP interface
                     GFN-xTB interface
                     Adaptive sampling
                     Grid search
                     Multilayer ONIOM (QM:QM' and QM:QM':MM)
                     Periodic boundary condition
                     Wall potential
                     QC/ML hybrid NAMD
                     Excited-State Neural Network Potentials (ESNNP)

    Patrick Reiser - Fully connected neural networks (pyNNsMD)
                     SchNet (pyNNsMD)

  Special acknowledgement to:
    Steven A. Lopez            - Project co-founder
    Pascal Friederich          - Project co-founder




  &control
-------------------------------------------------------
  Title:                      dbh-6     
  NPROCS for ML:              1         
  NPROCS for QC:              1         
  NPROCS for Multiscale:      1          
  Seed:                       1         
  Job: 	                      md        
  QM:          	       	      nequip    
  Ab initio:                  molcas    
-------------------------------------------------------

        
  &molecule
-------------------------------------------------------
  States:                     [2]       
  Spin:                       [0]       
  Interstates:                [[1, 2]]  
  QMMM keyfile:               None      
  QMMM xyzfile:               Input     
  High level region:          []         ...
  Middel level region:        []         ...
  Boundary:                   []         ...
  Embedding charges:          False     
  Reading charge:             False     
  Frozen atoms:               []        
  Constrained atoms:          []        
  Restrained bonds:           []        
  Restrained angles:          []        
  Restrained dihedrals:       []        
  Restrained bond value:      []        
  Restrained angle value:     []        
  Restrained dihedral value:  []        
  Bond potential scale:       10.0      
  Angle potential scale:      0.005     
  Dihedral potential scale:   1e-06     
  External potential shape:   ['ellipsoid']
  External potential radius:  []        
  External potential factor:  [40]      
  External potential scale:   [1.0]       
  Compress potential volume:  []        
  Potential center:           []        
  Potential center type:      xyz       
  Constrained groups          []        
  Track geometry type:        None      
  Track indices:              []        
  Track threshold:            []        
  Track stop task:            0         
  Lattice vectors:            []        
  Lattice constant:           []        
  Periodic boundary condition []        
-------------------------------------------------------

        
  &initial condition
-------------------------------------------------------
  Generate initial condition: 0         
  Number:                     5000      
  Method:                     wigner     
  Format:                     molden    
-------------------------------------------------------

        
  &md
-------------------------------------------------------
  Initial state:              2         
  Initialize random velocity  0         
  Temperature (K):            300       
  Step:                       2000      
  Dt (au):                    20.67     
  Only active state grad      0         
  Surface hopping:            fssh      
  NAC type:                   nac       
  Phase correction            1         
  Population reset            0         
  Substep:                    20        
  Integrate probability       0         
  Decoherence:                0.1       
  Adjust velocity:            2         
  Reflect velocity:           1         
  Maxhop:                     10        
  IC hopping gap threshold    0.5       
  ISC hopping gap threshold   0.5       
  Thermodynamic:              off       
  Thermodynamic delay:        200       
  Print level:                0         
  Direct output:              2000      
  Buffer output:              0         
  Record MD data:             1         
  Record MD steps:            0         
  Checkpoint steps:           1          
  Restart function:           0         
  Additional steps:           0         
-------------------------------------------------------

        
  &md velocity control
-------------------------------------------------------
  Excess kinetic energy       0         
  Scale kinetic energy        1         
  Target kinetic energy       0         
  Gradient descent path       0         
  Reset velocity:             0         
  Reset step:                 0         
-------------------------------------------------------

        
  &nequip
-------------------------------------------------------
  Train data:                 None      
  Prediction data:            None      
  Train mode:                 training  
  Silent mode:                1         
  Data splits:                10        
  NN EG type:                 1         
  NN NAC type:                0         
  NN SOC type:                0         
  Multiscale:                 []        
  Shuffle data:               False     
  EG unit:                    si        
  NAC unit:                   si        
  SOC unit:                   cm-1
  Select EG output:           []        
  Select NAC output:          []        
  Select SOC output:          []          
  Data permutation            No        
  Elements                              
-------------------------------------------------------

        

  NequIP-NAC (Energy + Gradient + NAC)

  &hyperparameters            Energy+Gradient      Nonadiabatic         Spin-orbit
----------------------------------------------------------------------------------------------
  Model type:                 NequIPeg            NequIPnac           n/a          
  Model path:                 dbh-6.nequip.pth     dbh-6.nequip.pth     n/a                 
  GPU:                        1                    1                    n/a                 
  Chemical symbols:           auto                 auto                 n/a                 
----------------------------------------------------------------------------------------------
        


 *---------------------------------------------------*
 |                                                   |
 |          Nonadiabatic Molecular Dynamics          |
 |                                                   |
 *---------------------------------------------------*


  State order:         1   2
  Multiplicity:        1   1

  QMMM key:         None
  QMMM xyz          Input
  Active atoms:     15
  Inactive atoms:   0
  Link atoms:       0
  Highlevel atoms:  15
  Midlevel atoms:   0
  Lowlevel atoms:   0
  
  Lattice vector:   None
  Periodic X/Y/Z:   None

  Iter:        1  Ekin =           0.0593292228916876 au T =   832.65 K dt =         20 CI:   2
  Root chosen for geometry opt   2

  Gnuplot:           0.0000000000000000           1.0000000000000000        -302.9248559599826081        -302.7594699701715513        -302.7594699701715513
  **
  **
  **
  A surface hopping is not allowed
  **
  At state:   2


  &surface hopping information
-------------------------------------------------------
  No surface hopping is performed
-------------------------------------------------------

  
  &error iter 1         
-------------------------------------------------------
  Energy   MaxStDev:          0.0000    
  Gradient MaxStDev:          0.0000    
  Nac      MaxStDev:          0.0000    
  Soc      MaxStDev:          0.0000    
-------------------------------------------------------

  Iter:        2  Ekin =           0.0592713311830171 au T =   831.84 K dt =         20 CI:   2
  Root chosen for geometry opt   2

  Gnuplot:           0.0000000000000000           1.0000000000000000        -302.9253992615659854        -302.7594307627839498        -302.7594307627839498
  **
  **
  **
  A surface hopping is not allowed
  **
  At state:   2


  &surface hopping information
-------------------------------------------------------
  No surface hopping is performed
-------------------------------------------------------

  
  &error iter 2         
-------------------------------------------------------
  Energy   MaxStDev:          0.0000    
  Gradient MaxStDev:          0.0000    
  Nac      MaxStDev:          0.0000    
  Soc      MaxStDev:          0.0000    
-------------------------------------------------------

  Iter:        3  Ekin =           0.0595983484373269 au T =   836.43 K dt =         20 CI:   2
  Root chosen for geometry opt   2

  Gnuplot:           0.0000000000000000           1.0000000000000000        -302.9263103361560638        -302.7598494597007175        -302.7598494597007175
  **
  **
  **
  A surface hopping is not allowed
  **
  At state:   2


  &surface hopping information
-------------------------------------------------------
  No surface hopping is performed
-------------------------------------------------------

  
  &error iter 3         
-------------------------------------------------------
  Energy   MaxStDev:          0.0000    
  Gradient MaxStDev:          0.0000    
  Nac      MaxStDev:          0.0000    
  Soc      MaxStDev:          0.0000    
-------------------------------------------------------

  Iter:        4  Ekin =           0.0594069254731871 au T =   833.74 K dt =         20 CI:   2
  Root chosen for geometry opt   2

  Gnuplot:           0.0000040328980261           0.9999959671017677        -302.9261463535373196        -302.7597054877477376        -302.7597054877477376
  **
  **
  **
  A surface hopping is not allowed
  **
  At state:   2


  &surface hopping information
-------------------------------------------------------

    Random number:             0.53182757
    Accumulated probability:   0.00000037
    state mult  level   probability 
    1     1     1       0.00000037
    2     1     2       0.00000000

    
-------------------------------------------------------

  
  &error iter 4         
-------------------------------------------------------
  Energy   MaxStDev:          0.0000    
  Gradient MaxStDev:          0.0000    
  Nac      MaxStDev:          0.0000    
  Soc      MaxStDev:          0.0000    
-------------------------------------------------------

  Iter:        5  Ekin =           0.0583253906953461 au T =   818.56 K dt =         20 CI:   2
  Root chosen for geometry opt   2

  Gnuplot:           0.0000016060277113           0.9999983939723052        -302.9241137637149563        -302.7585657128008165        -302.7585657128008165
  **
  **
  **
  A surface hopping is not allowed
  **
  At state:   2


  &surface hopping information
-------------------------------------------------------

    Random number:             0.50183666
    Accumulated probability:   0.00000031
    state mult  level   probability 
    1     1     1       0.00000031
    2     1     2       0.00000000

    
-------------------------------------------------------

  
  &error iter 5         
-------------------------------------------------------
  Energy   MaxStDev:          0.0000    
  Gradient MaxStDev:          0.0000    
  Nac      MaxStDev:          0.0000    
  Soc      MaxStDev:          0.0000    
-------------------------------------------------------

  Iter:        6  Ekin =           0.0575023184752809 au T =   807.01 K dt =         20 CI:   2
  Root chosen for geometry opt   2

  Gnuplot:           0.0000018167627080           0.9999981832372669        -302.9217860599587198        -302.7575781597875562        -302.7575781597875562
  **
  **
  **
  A surface hopping is not allowed
  **
  At state:   2


  &surface hopping information
-------------------------------------------------------

    Random number:             0.51042235
    Accumulated probability:   0.00000018
    state mult  level   probability 
    1     1     1       0.00000018
    2     1     2       0.00000000

    
-------------------------------------------------------

  
  &error iter 6         
-------------------------------------------------------
  Energy   MaxStDev:          0.0000    
  Gradient MaxStDev:          0.0000    
  Nac      MaxStDev:          0.0000    
  Soc      MaxStDev:          0.0000    
-------------------------------------------------------

  Iter:        7  Ekin =           0.0593502284181871 au T =   832.95 K dt =         20 CI:   2
  Root chosen for geometry opt   2

  Gnuplot:           0.0000011112883725           0.9999988887116160        -302.9223845786851257        -302.7592916250851545        -302.7592916250851545
  **
  **
  **
  A surface hopping is not allowed
  **
  At state:   2


  &surface hopping information
-------------------------------------------------------

    Random number:             0.69552952
    Accumulated probability:   0.00000015
    state mult  level   probability 
    1     1     1       0.00000015
    2     1     2       0.00000000

    
-------------------------------------------------------

  
  &error iter 7         
-------------------------------------------------------
  Energy   MaxStDev:          0.0000    
  Gradient MaxStDev:          0.0000    
  Nac      MaxStDev:          0.0000    
  Soc      MaxStDev:          0.0000    
-------------------------------------------------------

  Iter:        8  Ekin =           0.0656437582230120 au T =   921.27 K dt =         20 CI:   2
  Root chosen for geometry opt   2

  Gnuplot:           0.0000007590221245           0.9999992409778997        -302.9278757271421796        -302.7656343727394983        -302.7656343727394983
  **
  **
  **
  A surface hopping is not allowed
  **
  At state:   2


  &surface hopping information
-------------------------------------------------------

    Random number:             0.34345600
    Accumulated probability:   0.00000010
    state mult  level   probability 
    1     1     1       0.00000010
    2     1     2       0.00000000

    
-------------------------------------------------------

  
  &error iter 8         
-------------------------------------------------------
  Energy   MaxStDev:          0.0000    
  Gradient MaxStDev:          0.0000    
  Nac      MaxStDev:          0.0000    
  Soc      MaxStDev:          0.0000    
-------------------------------------------------------

  Iter:        9  Ekin =           0.0754734456697131 au T =  1059.23 K dt =         20 CI:   2
  Root chosen for geometry opt   2

  Gnuplot:           0.0000004779408463           0.9999995220591700        -302.9375424533648697        -302.7757244567566204        -302.7757244567566204
  **
  **
  **
  A surface hopping is not allowed
  **
  At state:   2


  &surface hopping information
-------------------------------------------------------

    Random number:             0.98834544
    Accumulated probability:   0.00000007
    state mult  level   probability 
    1     1     1       0.00000007
    2     1     2       0.00000000

    
-------------------------------------------------------

  
  &error iter 9         
-------------------------------------------------------
  Energy   MaxStDev:          0.0000    
  Gradient MaxStDev:          0.0000    
  Nac      MaxStDev:          0.0000    
  Soc      MaxStDev:          0.0000    
-------------------------------------------------------

  Iter:       10  Ekin =           0.0849250329932621 au T =  1191.88 K dt =         20 CI:   2
  Root chosen for geometry opt   2

  Gnuplot:           0.0000003330619489           0.9999996669380380        -302.9473354672898608        -302.7854984667801546        -302.7854984667801546
  **
  **
  **
  A surface hopping is not allowed
  **
  At state:   2


  &surface hopping information
-------------------------------------------------------

    Random number:             0.54776359
    Accumulated probability:   0.00000005
    state mult  level   probability 
    1     1     1       0.00000005
    2     1     2       0.00000000

    
-------------------------------------------------------

  
  &error iter 10        
-------------------------------------------------------
  Energy   MaxStDev:          0.0000    
  Gradient MaxStDev:          0.0000    
  Nac      MaxStDev:          0.0000    
  Soc      MaxStDev:          0.0000    
-------------------------------------------------------

  Iter:       11  Ekin =           0.0895113747871431 au T =  1256.24 K dt =         20 CI:   2
  Root chosen for geometry opt   2

  Gnuplot:           0.0000002374248684           0.9999997625751291        -302.9520159591062338        -302.7901406816098984        -302.7901406816098984
  **
  **
  **
  A surface hopping is not allowed
  **
  At state:   2


  &surface hopping information
-------------------------------------------------------

    Random number:             0.44032788
    Accumulated probability:   0.00000004
    state mult  level   probability 
    1     1     1       0.00000004
    2     1     2       0.00000000

    
-------------------------------------------------------

  
  &error iter 11        
-------------------------------------------------------
  Energy   MaxStDev:          0.0000    
  Gradient MaxStDev:          0.0000    
  Nac      MaxStDev:          0.0000    
  Soc      MaxStDev:          0.0000    
-------------------------------------------------------

  Iter:       12  Ekin =           0.0877845240579577 au T =  1232.01 K dt =         20 CI:   2
  Root chosen for geometry opt   2

  Gnuplot:           0.0000001821354507           0.9999998178645484        -302.9502212234040712        -302.7882372780409810        -302.7882372780409810
  **
  **
  **
  A surface hopping is not allowed
  **
  At state:   2


  &surface hopping information
-------------------------------------------------------

    Random number:             0.42430687
    Accumulated probability:   0.00000003
    state mult  level   probability 
    1     1     1       0.00000003
    2     1     2       0.00000000

    
-------------------------------------------------------

  
  &error iter 12        
-------------------------------------------------------
  Energy   MaxStDev:          0.0000    
  Gradient MaxStDev:          0.0000    
  Nac      MaxStDev:          0.0000    
  Soc      MaxStDev:          0.0000    
-------------------------------------------------------

  Iter:       13  Ekin =           0.0817646307664053 au T =  1147.52 K dt =         20 CI:   2
  Root chosen for geometry opt   2

  Gnuplot:           0.0000001071127803           0.9999998928872174        -302.9441577398094978        -302.7819548197369386        -302.7819548197369386
  **
  **
  **
  A surface hopping is not allowed
  **
  At state:   2


  &surface hopping information
-------------------------------------------------------

    Random number:             0.12175436
    Accumulated probability:   0.00000001
    state mult  level   probability 
    1     1     1       0.00000001
    2     1     2       0.00000000

    
-------------------------------------------------------

  
  &error iter 13        
-------------------------------------------------------
  Energy   MaxStDev:          0.0000    
  Gradient MaxStDev:          0.0000    
  Nac      MaxStDev:          0.0000    
  Soc      MaxStDev:          0.0000    
-------------------------------------------------------

  Iter:       14  Ekin =           0.0749988058550775 au T =  1052.57 K dt =         20 CI:   2
  Root chosen for geometry opt   2

  Gnuplot:           0.0000000367259517           0.9999999632740497        -302.9371322749421438        -302.7749672054694088        -302.7749672054694088
  **
  **
  **
  A surface hopping is not allowed
  **
  At state:   2


  &surface hopping information
-------------------------------------------------------

    Random number:             0.18690374
    Accumulated probability:   0.00000000
    state mult  level   probability 
    1     1     1       0.00000000
    2     1     2       0.00000000

    
-------------------------------------------------------

  
  &error iter 14        
-------------------------------------------------------
  Energy   MaxStDev:          0.0000    
  Gradient MaxStDev:          0.0000    
  Nac      MaxStDev:          0.0000    
  Soc      MaxStDev:          0.0000    
-------------------------------------------------------

  Iter:       15  Ekin =           0.0705136664272268 au T =   989.62 K dt =         20 CI:   2
  Root chosen for geometry opt   2

  Gnuplot:           0.0000000057006512           0.9999999942993489        -302.9320303459102774        -302.7704047975574895        -302.7704047975574895
  **
  **
  **
  A surface hopping is not allowed
  **
  At state:   2


  &surface hopping information
-------------------------------------------------------

    Random number:             0.62630934
    Accumulated probability:   0.00000000
    state mult  level   probability 
    1     1     1       0.00000000
    2     1     2       0.00000000

    
-------------------------------------------------------

  
  &error iter 15        
-------------------------------------------------------
  Energy   MaxStDev:          0.0000    
  Gradient MaxStDev:          0.0000    
  Nac      MaxStDev:          0.0000    
  Soc      MaxStDev:          0.0000    
-------------------------------------------------------

  Iter:       16  Ekin =           0.0693864821287095 au T =   973.80 K dt =         20 CI:   2
  Root chosen for geometry opt   2

  Gnuplot:           0.0000000021150735           0.9999999978849266        -302.9299626303355808        -302.7693448399667204        -302.7693448399667204
  **
  **
  **
  A surface hopping is not allowed
  **
  At state:   2


  &surface hopping information
-------------------------------------------------------

    Random number:             0.26690581
    Accumulated probability:   0.00000000
    state mult  level   probability 
    1     1     1       0.00000000
    2     1     2       0.00000000

    
-------------------------------------------------------

  
  &error iter 16        
-------------------------------------------------------
  Energy   MaxStDev:          0.0000    
  Gradient MaxStDev:          0.0000    
  Nac      MaxStDev:          0.0000    
  Soc      MaxStDev:          0.0000    
-------------------------------------------------------

  Iter:       17  Ekin =           0.0706627744175717 au T =   991.71 K dt =         20 CI:   2
  Root chosen for geometry opt   2

  Gnuplot:           0.0000000278206159           0.9999999721793849        -302.9301197570832755        -302.7707530501986071        -302.7707530501986071
  **
  **
  **
  A surface hopping is not allowed
  **
  At state:   2


  &surface hopping information
-------------------------------------------------------

    Random number:             0.02619660
    Accumulated probability:   0.00000001
    state mult  level   probability 
    1     1     1       0.00000001
    2     1     2       0.00000000

    
-------------------------------------------------------

  
  &error iter 17        
-------------------------------------------------------
  Energy   MaxStDev:          0.0000    
  Gradient MaxStDev:          0.0000    
  Nac      MaxStDev:          0.0000    
  Soc      MaxStDev:          0.0000    
-------------------------------------------------------

  Iter:       18  Ekin =           0.0724339709633022 au T =  1016.57 K dt =         20 CI:   2
  Root chosen for geometry opt   2

  Gnuplot:           0.0000001056747055           0.9999998943252919        -302.9307893462448078        -302.7726273313368779        -302.7726273313368779
  **
  **
  **
  A surface hopping is not allowed
  **
  At state:   2


  &surface hopping information
-------------------------------------------------------

    Random number:             0.59648693
    Accumulated probability:   0.00000002
    state mult  level   probability 
    1     1     1       0.00000002
    2     1     2       0.00000000

    
-------------------------------------------------------

  
  &error iter 18        
-------------------------------------------------------
  Energy   MaxStDev:          0.0000    
  Gradient MaxStDev:          0.0000    
  Nac      MaxStDev:          0.0000    
  Soc      MaxStDev:          0.0000    
-------------------------------------------------------

  Iter:       19  Ekin =           0.0731800242676118 au T =  1027.04 K dt =         20 CI:   2
  Root chosen for geometry opt   2

  Gnuplot:           0.0000002535498299           0.9999997464501575        -302.9306006095791304        -302.7733905803847847        -302.7733905803847847
  **
  **
  **
  A surface hopping is not allowed
  **
  At state:   2


  &surface hopping information
-------------------------------------------------------

    Random number:             0.50056142
    Accumulated probability:   0.00000005
    state mult  level   probability 
    1     1     1       0.00000005
    2     1     2       0.00000000

    
-------------------------------------------------------

  
  &error iter 19        
-------------------------------------------------------
  Energy   MaxStDev:          0.0000    
  Gradient MaxStDev:          0.0000    
  Nac      MaxStDev:          0.0000    
  Soc      MaxStDev:          0.0000    
-------------------------------------------------------

  Iter:       20  Ekin =           0.0725963552110465 au T =  1018.85 K dt =         20 CI:   2
  Root chosen for geometry opt   2

  Gnuplot:           0.0000004588612023           0.9999995411388056        -302.9292739045785652        -302.7727454800311193        -302.7727454800311193
  **
  **
  **
  A surface hopping is not allowed
  **
  At state:   2


  &surface hopping information
-------------------------------------------------------

    Random number:             0.24221981
    Accumulated probability:   0.00000008
    state mult  level   probability 
    1     1     1       0.00000008
    2     1     2       0.00000000

    
-------------------------------------------------------

  
  &error iter 20        
-------------------------------------------------------
  Energy   MaxStDev:          0.0000    
  Gradient MaxStDev:          0.0000    
  Nac      MaxStDev:          0.0000    
  Soc      MaxStDev:          0.0000    
-------------------------------------------------------

  Iter:       21  Ekin =           0.0715820028914364 au T =  1004.61 K dt =         20 CI:   2
  Root chosen for geometry opt   2

  Gnuplot:           0.0000007371909610           0.9999992628090126        -302.9276108947951229        -302.7716371888542426        -302.7716371888542426
  **
  **
  **
  A surface hopping is not allowed
  **
  At state:   2


  &surface hopping information
-------------------------------------------------------

    Random number:             0.36418745
    Accumulated probability:   0.00000013
    state mult  level   probability 
    1     1     1       0.00000013
    2     1     2       0.00000000

    
-------------------------------------------------------

  
  &error iter 21        
-------------------------------------------------------
  Energy   MaxStDev:          0.0000    
  Gradient MaxStDev:          0.0000    
  Nac      MaxStDev:          0.0000    
  Soc      MaxStDev:          0.0000    
-------------------------------------------------------

  Iter:       22  Ekin =           0.0715398362643789 au T =  1004.02 K dt =         20 CI:   2
  Root chosen for geometry opt   2

  Gnuplot:           0.0000011670571145           0.9999988329428788        -302.9268819059319071        -302.7715454119765468        -302.7715454119765468
  **
  **
  **
  A surface hopping is not allowed
  **
  At state:   2


  &surface hopping information
-------------------------------------------------------

    Random number:             0.23747823
    Accumulated probability:   0.00000021
    state mult  level   probability 
    1     1     1       0.00000021
    2     1     2       0.00000000

    
-------------------------------------------------------

  
  &error iter 22        
-------------------------------------------------------
  Energy   MaxStDev:          0.0000    
  Gradient MaxStDev:          0.0000    
  Nac      MaxStDev:          0.0000    
  Soc      MaxStDev:          0.0000    
-------------------------------------------------------

  Iter:       23  Ekin =           0.0732425008131596 au T =  1027.92 K dt =         20 CI:   2
  Root chosen for geometry opt   2

  Gnuplot:           0.0000017786875650           0.9999982213124667        -302.9277673091542624        -302.7733154985537567        -302.7733154985537567
  **
  **
  **
  A surface hopping is not allowed
  **
  At state:   2


  &surface hopping information
-------------------------------------------------------

    Random number:             0.84575248
    Accumulated probability:   0.00000032
    state mult  level   probability 
    1     1     1       0.00000032
    2     1     2       0.00000000

    
-------------------------------------------------------

  
  &error iter 23        
-------------------------------------------------------
  Energy   MaxStDev:          0.0000    
  Gradient MaxStDev:          0.0000    
  Nac      MaxStDev:          0.0000    
  Soc      MaxStDev:          0.0000    
-------------------------------------------------------

  Iter:       24  Ekin =           0.0758771921255968 au T =  1064.89 K dt =         20 CI:   2
  Root chosen for geometry opt   2

  Gnuplot:           0.0000023792111580           0.9999976207889176        -302.9293885500137549        -302.7761277646826557        -302.7761277646826557
  **
  **
  **
  A surface hopping is not allowed
  **
  At state:   2


  &surface hopping information
-------------------------------------------------------

    Random number:             0.86335337
    Accumulated probability:   0.00000041
    state mult  level   probability 
    1     1     1       0.00000041
    2     1     2       0.00000000

    
-------------------------------------------------------

  
  &error iter 24        
-------------------------------------------------------
  Energy   MaxStDev:          0.0000    
  Gradient MaxStDev:          0.0000    
  Nac      MaxStDev:          0.0000    
  Soc      MaxStDev:          0.0000    
-------------------------------------------------------

  Iter:       25  Ekin =           0.0772119885220295 au T =  1083.63 K dt =         20 CI:   2
  Root chosen for geometry opt   2

  Gnuplot:           0.0000025996700759           0.9999974003299030        -302.9294245535314190        -302.7776341398456452        -302.7776341398456452
  **
  **
  **
  A surface hopping is not allowed
  **
  At state:   2


  &surface hopping information
-------------------------------------------------------

    Random number:             0.44169739
    Accumulated probability:   0.00000041
    state mult  level   probability 
    1     1     1       0.00000041
    2     1     2       0.00000000

    
-------------------------------------------------------

  
  &error iter 25        
-------------------------------------------------------
  Energy   MaxStDev:          0.0000    
  Gradient MaxStDev:          0.0000    
  Nac      MaxStDev:          0.0000    
  Soc      MaxStDev:          0.0000    
-------------------------------------------------------

  Iter:       26  Ekin =           0.0751323825754561 au T =  1054.44 K dt =         20 CI:   2
  Root chosen for geometry opt   2

  Gnuplot:           0.0000022061046989           0.9999977938953180        -302.9257700653230927        -302.7755974132958272        -302.7755974132958272
  **
  **
  **
  A surface hopping is not allowed
  **
  At state:   2


  &surface hopping information
-------------------------------------------------------

    Random number:             0.92455190
    Accumulated probability:   0.00000030
    state mult  level   probability 
    1     1     1       0.00000030
    2     1     2       0.00000000

    
-------------------------------------------------------

  
  &error iter 26        
-------------------------------------------------------
  Energy   MaxStDev:          0.0000    
  Gradient MaxStDev:          0.0000    
  Nac      MaxStDev:          0.0000    
  Soc      MaxStDev:          0.0000    
-------------------------------------------------------

  Iter:       27  Ekin =           0.0695535016435697 au T =   976.15 K dt =         20 CI:   2
  Root chosen for geometry opt   2

  Gnuplot:           0.0000015970772417           0.9999984029227562        -302.9186567368724354        -302.7698343508499761        -302.7698343508499761
  **
  **
  **
  A surface hopping is not allowed
  **
  At state:   2


  &surface hopping information
-------------------------------------------------------

    Random number:             0.23008996
    Accumulated probability:   0.00000019
    state mult  level   probability 
    1     1     1       0.00000019
    2     1     2       0.00000000

    
-------------------------------------------------------

  
  &error iter 27        
-------------------------------------------------------
  Energy   MaxStDev:          0.0000    
  Gradient MaxStDev:          0.0000    
  Nac      MaxStDev:          0.0000    
  Soc      MaxStDev:          0.0000    
-------------------------------------------------------

  Iter:       28  Ekin =           0.0634464668183632 au T =   890.44 K dt =         20 CI:   2
  Root chosen for geometry opt   2

  Gnuplot:           0.0000012821388771           0.9999987178611036        -302.9111081176811808        -302.7634215616731694        -302.7634215616731694
  **
  **
  **
  A surface hopping is not allowed
  **
  At state:   2


  &surface hopping information
-------------------------------------------------------

    Random number:             0.74461544
    Accumulated probability:   0.00000016
    state mult  level   probability 
    1     1     1       0.00000016
    2     1     2       0.00000000

    
-------------------------------------------------------

  
  &error iter 28        
-------------------------------------------------------
  Energy   MaxStDev:          0.0000    
  Gradient MaxStDev:          0.0000    
  Nac      MaxStDev:          0.0000    
  Soc      MaxStDev:          0.0000    
-------------------------------------------------------

  Iter:       29  Ekin =           0.0609204628513988 au T =   854.99 K dt =         20 CI:   2
  Root chosen for geometry opt   2

  Gnuplot:           0.0000012006018955           0.9999987993980994        -302.9072031740276998        -302.7607980109134473        -302.7607980109134473
  **
  **
  **
  A surface hopping is not allowed
  **
  At state:   2


  &surface hopping information
-------------------------------------------------------

    Random number:             0.47777805
    Accumulated probability:   0.00000015
    state mult  level   probability 
    1     1     1       0.00000015
    2     1     2       0.00000000

    
-------------------------------------------------------

  
  &error iter 29        
-------------------------------------------------------
  Energy   MaxStDev:          0.0000    
  Gradient MaxStDev:          0.0000    
  Nac      MaxStDev:          0.0000    
  Soc      MaxStDev:          0.0000    
-------------------------------------------------------

  Iter:       30  Ekin =           0.0633471546936115 au T =   889.04 K dt =         20 CI:   2
  Root chosen for geometry opt   2

  Gnuplot:           0.0000012249127345           0.9999987750873061        -302.9086851648335710        -302.7634007036350567        -302.7634007036350567
  **
  **
  **
  A surface hopping is not allowed
  **
  At state:   2


  &surface hopping information
-------------------------------------------------------

    Random number:             0.67112660
    Accumulated probability:   0.00000017
    state mult  level   probability 
    1     1     1       0.00000017
    2     1     2       0.00000000

    
-------------------------------------------------------

  
  &error iter 30        
-------------------------------------------------------
  Energy   MaxStDev:          0.0000    
  Gradient MaxStDev:          0.0000    
  Nac      MaxStDev:          0.0000    
  Soc      MaxStDev:          0.0000    
-------------------------------------------------------

  Iter:       31  Ekin =           0.0681861692988198 au T =   956.96 K dt =         20 CI:   2
  Root chosen for geometry opt   2

  Gnuplot:           0.0000015605256922           0.9999984394743251        -302.9131049828540654        -302.7685351813936450        -302.7685351813936450
  **
  **
  **
  A surface hopping is not allowed
  **
  At state:   2


  &surface hopping information
-------------------------------------------------------

    Random number:             0.24862377
    Accumulated probability:   0.00000025
    state mult  level   probability 
    1     1     1       0.00000025
    2     1     2       0.00000000

    
-------------------------------------------------------

  
  &error iter 31        
-------------------------------------------------------
  Energy   MaxStDev:          0.0000    
  Gradient MaxStDev:          0.0000    
  Nac      MaxStDev:          0.0000    
  Soc      MaxStDev:          0.0000    
-------------------------------------------------------

  Iter:       32  Ekin =           0.0711877446555015 au T =   999.08 K dt =         20 CI:   2
  Root chosen for geometry opt   2

  Gnuplot:           0.0000022636008761           0.9999977363991093        -302.9158420356288843        -302.7716879210053094        -302.7716879210053094
  **
  **
  **
  A surface hopping is not allowed
  **
  At state:   2


  &surface hopping information
-------------------------------------------------------

    Random number:             0.95631200
    Accumulated probability:   0.00000037
    state mult  level   probability 
    1     1     1       0.00000037
    2     1     2       0.00000000

    
-------------------------------------------------------

  
  &error iter 32        
-------------------------------------------------------
  Energy   MaxStDev:          0.0000    
  Gradient MaxStDev:          0.0000    
  Nac      MaxStDev:          0.0000    
  Soc      MaxStDev:          0.0000    
-------------------------------------------------------

  Iter:       33  Ekin =           0.0700361349123355 au T =   982.92 K dt =         20 CI:   2
  Root chosen for geometry opt   2

  Gnuplot:           0.0000031075902482           0.9999968924098539        -302.9142407023152259        -302.7703920226402943        -302.7703920226402943
  **
  **
  **
  A surface hopping is not allowed
  **
  At state:   2


  &surface hopping information
-------------------------------------------------------

    Random number:             0.03191799
    Accumulated probability:   0.00000048
    state mult  level   probability 
    1     1     1       0.00000048
    2     1     2       0.00000000

    
-------------------------------------------------------

  
  &error iter 33        
-------------------------------------------------------
  Energy   MaxStDev:          0.0000    
  Gradient MaxStDev:          0.0000    
  Nac      MaxStDev:          0.0000    
  Soc      MaxStDev:          0.0000    
-------------------------------------------------------

  Iter:       34  Ekin =           0.0660513757693006 au T =   926.99 K dt =         20 CI:   2
  Root chosen for geometry opt   2

  Gnuplot:           0.0000039938039930           0.9999960061959428        -302.9094722053259261        -302.7661697470163062        -302.7661697470163062
  **
  **
  **
  A surface hopping is not allowed
  **
  At state:   2


  &surface hopping information
-------------------------------------------------------

    Random number:             0.16200083
    Accumulated probability:   0.00000057
    state mult  level   probability 
    1     1     1       0.00000057
    2     1     2       0.00000000

    
-------------------------------------------------------

  
  &error iter 34        
-------------------------------------------------------
  Energy   MaxStDev:          0.0000    
  Gradient MaxStDev:          0.0000    
  Nac      MaxStDev:          0.0000    
  Soc      MaxStDev:          0.0000    
-------------------------------------------------------

  Iter:       35  Ekin =           0.0623460551057666 au T =   874.99 K dt =         20 CI:   2
  Root chosen for geometry opt   2

  Gnuplot:           0.0000045559139299           0.9999954440859256        -302.9048463116403695        -302.7622827945880886        -302.7622827945880886
  **
  **
  **
  A surface hopping is not allowed
  **
  At state:   2


  &surface hopping information
-------------------------------------------------------

    Random number:             0.19600947
    Accumulated probability:   0.00000059
    state mult  level   probability 
    1     1     1       0.00000059
    2     1     2       0.00000000

    
-------------------------------------------------------

  
  &error iter 35        
-------------------------------------------------------
  Energy   MaxStDev:          0.0000    
  Gradient MaxStDev:          0.0000    
  Nac      MaxStDev:          0.0000    
  Soc      MaxStDev:          0.0000    
-------------------------------------------------------

  Iter:       36  Ekin =           0.0613257315031299 au T =   860.67 K dt =         20 CI:   2
  Root chosen for geometry opt   2

  Gnuplot:           0.0000044069432769           0.9999955930566102        -302.9028899141400757        -302.7612351387539888        -302.7612351387539888
  **
  **
  **
  A surface hopping is not allowed
  **
  At state:   2


  &surface hopping information
-------------------------------------------------------

    Random number:             0.81031483
    Accumulated probability:   0.00000053
    state mult  level   probability 
    1     1     1       0.00000053
    2     1     2       0.00000000

    
-------------------------------------------------------

  
  &error iter 36        
-------------------------------------------------------
  Energy   MaxStDev:          0.0000    
  Gradient MaxStDev:          0.0000    
  Nac      MaxStDev:          0.0000    
  Soc      MaxStDev:          0.0000    
-------------------------------------------------------

  Iter:       37  Ekin =           0.0633883442096908 au T =   889.62 K dt =         20 CI:   2
  Root chosen for geometry opt   2

  Gnuplot:           0.0000038097933324           0.9999961902067298        -302.9038897387958968        -302.7633896551214434        -302.7633896551214434
  **
  **
  **
  A surface hopping is not allowed
  **
  At state:   2


  &surface hopping information
-------------------------------------------------------

    Random number:             0.44046199
    Accumulated probability:   0.00000045
    state mult  level   probability 
    1     1     1       0.00000045
    2     1     2       0.00000000

    
-------------------------------------------------------

  
  &error iter 37        
-------------------------------------------------------
  Energy   MaxStDev:          0.0000    
  Gradient MaxStDev:          0.0000    
  Nac      MaxStDev:          0.0000    
  Soc      MaxStDev:          0.0000    
-------------------------------------------------------

  Iter:       38  Ekin =           0.0672558138915260 au T =   943.90 K dt =         20 CI:   2
  Root chosen for geometry opt   2

  Gnuplot:           0.0000033054532611           0.9999966945467804        -302.9066127708605904        -302.7673814991712788        -302.7673814991712788
  **
  **
  **
  A surface hopping is not allowed
  **
  At state:   2


  &surface hopping information
-------------------------------------------------------

    Random number:             0.84750229
    Accumulated probability:   0.00000041
    state mult  level   probability 
    1     1     1       0.00000041
    2     1     2       0.00000000

    
-------------------------------------------------------

  
  &error iter 38        
-------------------------------------------------------
  Energy   MaxStDev:          0.0000    
  Gradient MaxStDev:          0.0000    
  Nac      MaxStDev:          0.0000    
  Soc      MaxStDev:          0.0000    
-------------------------------------------------------

  Iter:       39  Ekin =           0.0711242264660860 au T =   998.19 K dt =         20 CI:   2
  Root chosen for geometry opt   2

  Gnuplot:           0.0000030829173935           0.9999969170826262        -302.9093895398504515        -302.7713444835096084        -302.7713444835096084
  **
  **
  **
  A surface hopping is not allowed
  **
  At state:   2


  &surface hopping information
-------------------------------------------------------

    Random number:             0.02734078
    Accumulated probability:   0.00000041
    state mult  level   probability 
    1     1     1       0.00000041
    2     1     2       0.00000000

    
-------------------------------------------------------

  
  &error iter 39        
-------------------------------------------------------
  Energy   MaxStDev:          0.0000    
  Gradient MaxStDev:          0.0000    
  Nac      MaxStDev:          0.0000    
  Soc      MaxStDev:          0.0000    
-------------------------------------------------------

  Iter:       40  Ekin =           0.0736504507417968 au T =  1033.64 K dt =         20 CI:   2
  Root chosen for geometry opt   2

  Gnuplot:           0.0000028987566259           0.9999971012434798        -302.9108790168260725        -302.7738949194618385        -302.7738949194618385
  **
  **
  **
  A surface hopping is not allowed
  **
  At state:   2


  &surface hopping information
-------------------------------------------------------

    Random number:             0.52388066
    Accumulated probability:   0.00000038
    state mult  level   probability 
    1     1     1       0.00000038
    2     1     2       0.00000000

    
-------------------------------------------------------

  
  &error iter 40        
-------------------------------------------------------
  Energy   MaxStDev:          0.0000    
  Gradient MaxStDev:          0.0000    
  Nac      MaxStDev:          0.0000    
  Soc      MaxStDev:          0.0000    
-------------------------------------------------------

  Iter:       41  Ekin =           0.0745665601276249 au T =  1046.50 K dt =         20 CI:   2
  Root chosen for geometry opt   2

  Gnuplot:           0.0000025018024813           0.9999974981974447        -302.9106023674092967        -302.7747532579512608        -302.7747532579512608
  **
  **
  **
  A surface hopping is not allowed
  **
  At state:   2


  &surface hopping information
-------------------------------------------------------

    Random number:             0.83538866
    Accumulated probability:   0.00000031
    state mult  level   probability 
    1     1     1       0.00000031
    2     1     2       0.00000000

    
-------------------------------------------------------

  
  &error iter 41        
-------------------------------------------------------
  Energy   MaxStDev:          0.0000    
  Gradient MaxStDev:          0.0000    
  Nac      MaxStDev:          0.0000    
  Soc      MaxStDev:          0.0000    
-------------------------------------------------------

  Iter:       42  Ekin =           0.0747685830470819 au T =  1049.34 K dt =         20 CI:   2
  Root chosen for geometry opt   2

  Gnuplot:           0.0000021078427757           0.9999978921571255        -302.9091848963694815        -302.7748648849987489        -302.7748648849987489
  **
  **
  **
  A surface hopping is not allowed
  **
  At state:   2


  &surface hopping information
-------------------------------------------------------

    Random number:             0.83534312
    Accumulated probability:   0.00000026
    state mult  level   probability 
    1     1     1       0.00000026
    2     1     2       0.00000000

    
-------------------------------------------------------

  
  &error iter 42        
-------------------------------------------------------
  Energy   MaxStDev:          0.0000    
  Gradient MaxStDev:          0.0000    
  Nac      MaxStDev:          0.0000    
  Soc      MaxStDev:          0.0000    
-------------------------------------------------------

  Iter:       43  Ekin =           0.0756829868659148 au T =  1062.17 K dt =         20 CI:   2
  Root chosen for geometry opt   2

  Gnuplot:           0.0000021948802034           0.9999978051198468        -302.9080922265170557        -302.7757188842100504        -302.7757188842100504
  **
  **
  **
  A surface hopping is not allowed
  **
  At state:   2


  &surface hopping information
-------------------------------------------------------

    Random number:             0.31050873
    Accumulated probability:   0.00000031
    state mult  level   probability 
    1     1     1       0.00000031
    2     1     2       0.00000000

    
-------------------------------------------------------

  
  &error iter 43        
-------------------------------------------------------
  Energy   MaxStDev:          0.0000    
  Gradient MaxStDev:          0.0000    
  Nac      MaxStDev:          0.0000    
  Soc      MaxStDev:          0.0000    
-------------------------------------------------------

  Iter:       44  Ekin =           0.0783442039693307 au T =  1099.52 K dt =         20 CI:   2
  Root chosen for geometry opt   2

  Gnuplot:           0.0000029790937197           0.9999970209062212        -302.9087356857330064        -302.7783910692868972        -302.7783910692868972
  **
  **
  **
  A surface hopping is not allowed
  **
  At state:   2


  &surface hopping information
-------------------------------------------------------

    Random number:             0.36726555
    Accumulated probability:   0.00000046
    state mult  level   probability 
    1     1     1       0.00000046
    2     1     2       0.00000000

    
-------------------------------------------------------

  
  &error iter 44        
-------------------------------------------------------
  Energy   MaxStDev:          0.0000    
  Gradient MaxStDev:          0.0000    
  Nac      MaxStDev:          0.0000    
  Soc      MaxStDev:          0.0000    
-------------------------------------------------------

  Iter:       45  Ekin =           0.0826616537618274 au T =  1160.11 K dt =         20 CI:   2
  Root chosen for geometry opt   2

  Gnuplot:           0.0000043702368070           0.9999956297633616        -302.9112551543478844        -302.7828171627629104        -302.7828171627629104
  **
  **
  **
  A surface hopping is not allowed
  **
  At state:   2


  &surface hopping information
-------------------------------------------------------

    Random number:             0.49291372
    Accumulated probability:   0.00000069
    state mult  level   probability 
    1     1     1       0.00000069
    2     1     2       0.00000000

    
-------------------------------------------------------

  
  &error iter 45        
-------------------------------------------------------
  Energy   MaxStDev:          0.0000    
  Gradient MaxStDev:          0.0000    
  Nac      MaxStDev:          0.0000    
  Soc      MaxStDev:          0.0000    
-------------------------------------------------------

  Iter:       46  Ekin =           0.0871302496782649 au T =  1222.83 K dt =         20 CI:   2
  Root chosen for geometry opt   2

  Gnuplot:           0.0000065169359840           0.9999934830639177        -302.9140158584489768        -302.7874593988443621        -302.7874593988443621
  **
  **
  **
  A surface hopping is not allowed
  **
  At state:   2


  &surface hopping information
-------------------------------------------------------

    Random number:             0.87132633
    Accumulated probability:   0.00000105
    state mult  level   probability 
    1     1     1       0.00000105
    2     1     2       0.00000000

    
-------------------------------------------------------

  
  &error iter 46        
-------------------------------------------------------
  Energy   MaxStDev:          0.0000    
  Gradient MaxStDev:          0.0000    
  Nac      MaxStDev:          0.0000    
  Soc      MaxStDev:          0.0000    
-------------------------------------------------------

  Iter:       47  Ekin =           0.0895359193806466 au T =  1256.59 K dt =         20 CI:   2
  Root chosen for geometry opt   2

  Gnuplot:           0.0000096246105085           0.9999903753896433        -302.9147791967275225        -302.7899676003883656        -302.7899676003883656
  **
  **
  **
  A surface hopping is not allowed
  **
  At state:   2


  &surface hopping information
-------------------------------------------------------

    Random number:             0.75112122
    Accumulated probability:   0.00000153
    state mult  level   probability 
    1     1     1       0.00000153
    2     1     2       0.00000000

    
-------------------------------------------------------

  
  &error iter 47        
-------------------------------------------------------
  Energy   MaxStDev:          0.0000    
  Gradient MaxStDev:          0.0000    
  Nac      MaxStDev:          0.0000    
  Soc      MaxStDev:          0.0000    
-------------------------------------------------------

  Iter:       48  Ekin =           0.0887931252828329 au T =  1246.16 K dt =         20 CI:   2
  Root chosen for geometry opt   2

  Gnuplot:           0.0000127575724424           0.9999872424277783        -302.9125353815461494        -302.7891401796401283        -302.7891401796401283
  **
  **
  **
  A surface hopping is not allowed
  **
  At state:   2


  &surface hopping information
-------------------------------------------------------

    Random number:             0.06073962
    Accumulated probability:   0.00000188
    state mult  level   probability 
    1     1     1       0.00000188
    2     1     2       0.00000000

    
-------------------------------------------------------

  
  &error iter 48        
-------------------------------------------------------
  Energy   MaxStDev:          0.0000    
  Gradient MaxStDev:          0.0000    
  Nac      MaxStDev:          0.0000    
  Soc      MaxStDev:          0.0000    
-------------------------------------------------------

  Iter:       49  Ekin =           0.0860205283593106 au T =  1207.25 K dt =         20 CI:   2
  Root chosen for geometry opt   2

  Gnuplot:           0.0000147679443979           0.9999852320552236        -302.9084923339319175        -302.7862097034829958        -302.7862097034829958
  **
  **
  **
  A surface hopping is not allowed
  **
  At state:   2


  &surface hopping information
-------------------------------------------------------

    Random number:             0.49868822
    Accumulated probability:   0.00000201
    state mult  level   probability 
    1     1     1       0.00000201
    2     1     2       0.00000000

    
-------------------------------------------------------

  
  &error iter 49        
-------------------------------------------------------
  Energy   MaxStDev:          0.0000    
  Gradient MaxStDev:          0.0000    
  Nac      MaxStDev:          0.0000    
  Soc      MaxStDev:          0.0000    
-------------------------------------------------------

  Iter:       50  Ekin =           0.0835721196461995 au T =  1172.89 K dt =         20 CI:   2
  Root chosen for geometry opt   2

  Gnuplot:           0.0000150036554344           0.9999849963442102        -302.9053151443129082        -302.7836316962041110        -302.7836316962041110
  **
  **
  **
  A surface hopping is not allowed
  **
  At state:   2


  &surface hopping information
-------------------------------------------------------

    Random number:             0.16322003
    Accumulated probability:   0.00000189
    state mult  level   probability 
    1     1     1       0.00000189
    2     1     2       0.00000000

    
-------------------------------------------------------

  
  &error iter 50        
-------------------------------------------------------
  Energy   MaxStDev:          0.0000    
  Gradient MaxStDev:          0.0000    
  Nac      MaxStDev:          0.0000    
  Soc      MaxStDev:          0.0000    
-------------------------------------------------------

  Iter:       51  Ekin =           0.0829499025514746 au T =  1164.16 K dt =         20 CI:   2
  Root chosen for geometry opt   2

  Gnuplot:           0.0000136890232574           0.9999863109769649        -302.9043106599408475        -302.7830942269486627        -302.7830942269486627
  **
  **
  **
  A surface hopping is not allowed
  **
  At state:   2


  &surface hopping information
-------------------------------------------------------

    Random number:             0.63735676
    Accumulated probability:   0.00000165
    state mult  level   probability 
    1     1     1       0.00000165
    2     1     2       0.00000000

    
-------------------------------------------------------

  
  &error iter 51        
-------------------------------------------------------
  Energy   MaxStDev:          0.0000    
  Gradient MaxStDev:          0.0000    
  Nac      MaxStDev:          0.0000    
  Soc      MaxStDev:          0.0000    
-------------------------------------------------------

  Iter:       52  Ekin =           0.0829228779658789 au T =  1163.78 K dt =         20 CI:   2
  Root chosen for geometry opt   2

  Gnuplot:           0.0000132553892554           0.9999867446103963        -302.9035572253143300        -302.7832834304274456        -302.7832834304274456
  **
  **
  **
  A surface hopping is not allowed
  **
  At state:   2


  &surface hopping information
-------------------------------------------------------

    Random number:             0.82653016
    Accumulated probability:   0.00000170
    state mult  level   probability 
    1     1     1       0.00000170
    2     1     2       0.00000000

    
-------------------------------------------------------

  
  &error iter 52        
-------------------------------------------------------
  Energy   MaxStDev:          0.0000    
  Gradient MaxStDev:          0.0000    
  Nac      MaxStDev:          0.0000    
  Soc      MaxStDev:          0.0000    
-------------------------------------------------------

  Iter:       53  Ekin =           0.0807428745234128 au T =  1133.18 K dt =         20 CI:   2
  Root chosen for geometry opt   2

  Gnuplot:           0.0000145587973217           0.9999854412026252        -302.9001570311716591        -302.7811442419244372        -302.7811442419244372
  **
  **
  **
  A surface hopping is not allowed
  **
  At state:   2


  &surface hopping information
-------------------------------------------------------

    Random number:             0.29489470
    Accumulated probability:   0.00000186
    state mult  level   probability 
    1     1     1       0.00000186
    2     1     2       0.00000000

    
-------------------------------------------------------

  
  &error iter 53        
-------------------------------------------------------
  Energy   MaxStDev:          0.0000    
  Gradient MaxStDev:          0.0000    
  Nac      MaxStDev:          0.0000    
  Soc      MaxStDev:          0.0000    
-------------------------------------------------------

  Iter:       54  Ekin =           0.0757252685254400 au T =  1062.76 K dt =         20 CI:   2
  Root chosen for geometry opt   2

  Gnuplot:           0.0000153376655238           0.9999846623341000        -302.8939951394746117        -302.7759155082489428        -302.7759155082489428
  **
  **
  **
  A surface hopping is not allowed
  **
  At state:   2


  &surface hopping information
-------------------------------------------------------

    Random number:             0.39012530
    Accumulated probability:   0.00000176
    state mult  level   probability 
    1     1     1       0.00000176
    2     1     2       0.00000000

    
-------------------------------------------------------

  
  &error iter 54        
-------------------------------------------------------
  Energy   MaxStDev:          0.0000    
  Gradient MaxStDev:          0.0000    
  Nac      MaxStDev:          0.0000    
  Soc      MaxStDev:          0.0000    
-------------------------------------------------------

  Iter:       55  Ekin =           0.0702181492051288 au T =   985.47 K dt =         20 CI:   2
  Root chosen for geometry opt   2

  Gnuplot:           0.0000145983317621           0.9999854016678000        -302.8878972683692723        -302.7701971978218012        -302.7701971978218012
  **
  **
  **
  A surface hopping is not allowed
  **
  At state:   2


  &surface hopping information
-------------------------------------------------------

    Random number:             0.23563835
    Accumulated probability:   0.00000153
    state mult  level   probability 
    1     1     1       0.00000153
    2     1     2       0.00000000

    
-------------------------------------------------------

  
  &error iter 55        
-------------------------------------------------------
  Energy   MaxStDev:          0.0000    
  Gradient MaxStDev:          0.0000    
  Nac      MaxStDev:          0.0000    
  Soc      MaxStDev:          0.0000    
-------------------------------------------------------

  Iter:       56  Ekin =           0.0670137940873104 au T =   940.50 K dt =         20 CI:   2
  Root chosen for geometry opt   2

  Gnuplot:           0.0000128468127840           0.9999871531872486        -302.8846588923676109        -302.7669151061961657        -302.7669151061961657
  **
  **
  **
  A surface hopping is not allowed
  **
  At state:   2


  &surface hopping information
-------------------------------------------------------

    Random number:             0.38442123
    Accumulated probability:   0.00000126
    state mult  level   probability 
    1     1     1       0.00000126
    2     1     2       0.00000000

    
-------------------------------------------------------

  
  &error iter 56        
-------------------------------------------------------
  Energy   MaxStDev:          0.0000    
  Gradient MaxStDev:          0.0000    
  Nac      MaxStDev:          0.0000    
  Soc      MaxStDev:          0.0000    
-------------------------------------------------------

  Iter:       57  Ekin =           0.0673174990718828 au T =   944.76 K dt =         20 CI:   2
  Root chosen for geometry opt   2

  Gnuplot:           0.0000105019188344           0.9999894980810495        -302.8851261020300285        -302.7672435321530884        -302.7672435321530884
  **
  **
  **
  A surface hopping is not allowed
  **
  At state:   2


  &surface hopping information
-------------------------------------------------------

    Random number:             0.86853385
    Accumulated probability:   0.00000102
    state mult  level   probability 
    1     1     1       0.00000102
    2     1     2       0.00000000

    
-------------------------------------------------------

  
  &error iter 57        
-------------------------------------------------------
  Energy   MaxStDev:          0.0000    
  Gradient MaxStDev:          0.0000    
  Nac      MaxStDev:          0.0000    
  Soc      MaxStDev:          0.0000    
-------------------------------------------------------

  Iter:       58  Ekin =           0.0707045007765368 au T =   992.30 K dt =         20 CI:   2
  Root chosen for geometry opt   2

  Gnuplot:           0.0000084696048743           0.9999915303951639        -302.8883915155722661        -302.7707219100665270        -302.7707219100665270
  **
  **
  **
  A surface hopping is not allowed
  **
  At state:   2


  &surface hopping information
-------------------------------------------------------

    Random number:             0.26602650
    Accumulated probability:   0.00000086
    state mult  level   probability 
    1     1     1       0.00000086
    2     1     2       0.00000000

    
-------------------------------------------------------

  
  &error iter 58        
-------------------------------------------------------
  Energy   MaxStDev:          0.0000    
  Gradient MaxStDev:          0.0000    
  Nac      MaxStDev:          0.0000    
  Soc      MaxStDev:          0.0000    
-------------------------------------------------------

  Iter:       59  Ekin =           0.0757229112677907 au T =  1062.73 K dt =         20 CI:   2
  Root chosen for geometry opt   2

  Gnuplot:           0.0000071380394261           0.9999928619604361        -302.8927243111891698        -302.7758584861493318        -302.7758584861493318
  **
  **
  **
  A surface hopping is not allowed
  **
  At state:   2


  &surface hopping information
-------------------------------------------------------

    Random number:             0.39126256
    Accumulated probability:   0.00000078
    state mult  level   probability 
    1     1     1       0.00000078
    2     1     2       0.00000000

    
-------------------------------------------------------

  
  &error iter 59        
-------------------------------------------------------
  Energy   MaxStDev:          0.0000    
  Gradient MaxStDev:          0.0000    
  Nac      MaxStDev:          0.0000    
  Soc      MaxStDev:          0.0000    
-------------------------------------------------------

  Iter:       60  Ekin =           0.0805970051365007 au T =  1131.13 K dt =         20 CI:   2
  Root chosen for geometry opt   2

  Gnuplot:           0.0000064790301124           0.9999935209698378        -302.8964201412255193        -302.7808270311285810        -302.7808270311285810
  **
  **
  **
  A surface hopping is not allowed
  **
  At state:   2


  &surface hopping information
-------------------------------------------------------

    Random number:             0.86737633
    Accumulated probability:   0.00000076
    state mult  level   probability 
    1     1     1       0.00000076
    2     1     2       0.00000000

    
-------------------------------------------------------

  
  &error iter 60        
-------------------------------------------------------
  Energy   MaxStDev:          0.0000    
  Gradient MaxStDev:          0.0000    
  Nac      MaxStDev:          0.0000    
  Soc      MaxStDev:          0.0000    
-------------------------------------------------------

  Iter:       61  Ekin =           0.0839692309234502 au T =  1178.46 K dt =         20 CI:   2
  Root chosen for geometry opt   2

  Gnuplot:           0.0000064325478230           0.9999935674522931        -302.8983417278349179        -302.7842252392306932        -302.7842252392306932
  **
  **
  **
  A surface hopping is not allowed
  **
  At state:   2


  &surface hopping information
-------------------------------------------------------

    Random number:             0.87273532
    Accumulated probability:   0.00000079
    state mult  level   probability 
    1     1     1       0.00000079
    2     1     2       0.00000000

    
-------------------------------------------------------

  
  &error iter 61        
-------------------------------------------------------
  Energy   MaxStDev:          0.0000    
  Gradient MaxStDev:          0.0000    
  Nac      MaxStDev:          0.0000    
  Soc      MaxStDev:          0.0000    
-------------------------------------------------------

  Iter:       62  Ekin =           0.0854495430144602 au T =  1199.24 K dt =         20 CI:   2
  Root chosen for geometry opt   2

  Gnuplot:           0.0000069470164364           0.9999930529834273        -302.8982714475437774        -302.7856667262936980        -302.7856667262936980
  **
  **
  **
  A surface hopping is not allowed
  **
  At state:   2


  &surface hopping information
-------------------------------------------------------

    Random number:             0.11751797
    Accumulated probability:   0.00000087
    state mult  level   probability 
    1     1     1       0.00000087
    2     1     2       0.00000000

    
-------------------------------------------------------

  
  &error iter 62        
-------------------------------------------------------
  Energy   MaxStDev:          0.0000    
  Gradient MaxStDev:          0.0000    
  Nac      MaxStDev:          0.0000    
  Soc      MaxStDev:          0.0000    
-------------------------------------------------------

  Iter:       63  Ekin =           0.0856258889066285 au T =  1201.71 K dt =         20 CI:   2
  Root chosen for geometry opt   2

  Gnuplot:           0.0000078538780370           0.9999921461221675        -302.8969698748077803        -302.7857729083390268        -302.7857729083390268
  **
  **
  **
  A surface hopping is not allowed
  **
  At state:   2


  &surface hopping information
-------------------------------------------------------

    Random number:             0.19332297
    Accumulated probability:   0.00000098
    state mult  level   probability 
    1     1     1       0.00000098
    2     1     2       0.00000000

    
-------------------------------------------------------

  
  &error iter 63        
-------------------------------------------------------
  Energy   MaxStDev:          0.0000    
  Gradient MaxStDev:          0.0000    
  Nac      MaxStDev:          0.0000    
  Soc      MaxStDev:          0.0000    
-------------------------------------------------------

  Iter:       64  Ekin =           0.0856657337702581 au T =  1202.27 K dt =         20 CI:   2
  Root chosen for geometry opt   2

  Gnuplot:           0.0000089325140369           0.9999910674860075        -302.8957935693380250        -302.7857357371797775        -302.7857357371797775
  **
  **
  **
  A surface hopping is not allowed
  **
  At state:   2


  &surface hopping information
-------------------------------------------------------

    Random number:             0.74706012
    Accumulated probability:   0.00000111
    state mult  level   probability 
    1     1     1       0.00000111
    2     1     2       0.00000000

    
-------------------------------------------------------

  
  &error iter 64        
-------------------------------------------------------
  Energy   MaxStDev:          0.0000    
  Gradient MaxStDev:          0.0000    
  Nac      MaxStDev:          0.0000    
  Soc      MaxStDev:          0.0000    
-------------------------------------------------------

  Iter:       65  Ekin =           0.0867458449300848 au T =  1217.43 K dt =         20 CI:   2
  Root chosen for geometry opt   2

  Gnuplot:           0.0000100901706629           0.9999899098293099        -302.8958823640215314        -302.7867886109384585        -302.7867886109384585
  **
  **
  **
  A surface hopping is not allowed
  **
  At state:   2


  &surface hopping information
-------------------------------------------------------

    Random number:             0.24655974
    Accumulated probability:   0.00000125
    state mult  level   probability 
    1     1     1       0.00000125
    2     1     2       0.00000000

    
-------------------------------------------------------

  
  &error iter 65        
-------------------------------------------------------
  Energy   MaxStDev:          0.0000    
  Gradient MaxStDev:          0.0000    
  Nac      MaxStDev:          0.0000    
  Soc      MaxStDev:          0.0000    
-------------------------------------------------------

  Iter:       66  Ekin =           0.0892202202112050 au T =  1252.16 K dt =         20 CI:   2
  Root chosen for geometry opt   2

  Gnuplot:           0.0000108729038583           0.9999891270963417        -302.8971734411146031        -302.7893385949260505        -302.7893385949260505
  **
  **
  **
  A surface hopping is not allowed
  **
  At state:   2


  &surface hopping information
-------------------------------------------------------

    Random number:             0.21946178
    Accumulated probability:   0.00000131
    state mult  level   probability 
    1     1     1       0.00000131
    2     1     2       0.00000000

    
-------------------------------------------------------

  
  &error iter 66        
-------------------------------------------------------
  Energy   MaxStDev:          0.0000    
  Gradient MaxStDev:          0.0000    
  Nac      MaxStDev:          0.0000    
  Soc      MaxStDev:          0.0000    
-------------------------------------------------------

  Iter:       67  Ekin =           0.0921505588950621 au T =  1293.28 K dt =         20 CI:   2
  Root chosen for geometry opt   2

  Gnuplot:           0.0000107346003759           0.9999892653995630        -302.8982454161556461        -302.7923854868847684        -302.7923854868847684
  **
  **
  **
  A surface hopping is not allowed
  **
  At state:   2


  &surface hopping information
-------------------------------------------------------

    Random number:             0.99920124
    Accumulated probability:   0.00000123
    state mult  level   probability 
    1     1     1       0.00000123
    2     1     2       0.00000000

    
-------------------------------------------------------

  
  &error iter 67        
-------------------------------------------------------
  Energy   MaxStDev:          0.0000    
  Gradient MaxStDev:          0.0000    
  Nac      MaxStDev:          0.0000    
  Soc      MaxStDev:          0.0000    
-------------------------------------------------------

  Iter:       68  Ekin =           0.0942204979494904 au T =  1322.33 K dt =         20 CI:   2
  Root chosen for geometry opt   2

  Gnuplot:           0.0000102258012487           0.9999897741990935        -302.8977312431641735        -302.7944795945263650        -302.7944795945263650
  **
  **
  **
  A surface hopping is not allowed
  **
  At state:   2


  &surface hopping information
-------------------------------------------------------

    Random number:             0.73272729
    Accumulated probability:   0.00000116
    state mult  level   probability 
    1     1     1       0.00000116
    2     1     2       0.00000000

    
-------------------------------------------------------

  
  &error iter 68        
-------------------------------------------------------
  Energy   MaxStDev:          0.0000    
  Gradient MaxStDev:          0.0000    
  Nac      MaxStDev:          0.0000    
  Soc      MaxStDev:          0.0000    
-------------------------------------------------------

  Iter:       69  Ekin =           0.0953373130570493 au T =  1338.01 K dt =         20 CI:   2
  Root chosen for geometry opt   2

  Gnuplot:           0.0000109455161640           0.9999890544841037        -302.8961912571139692        -302.7954826548744904        -302.7954826548744904
  **
  **
  **
  A surface hopping is not allowed
  **
  At state:   2


  &surface hopping information
-------------------------------------------------------

    Random number:             0.93929583
    Accumulated probability:   0.00000133
    state mult  level   probability 
    1     1     1       0.00000133
    2     1     2       0.00000000

    
-------------------------------------------------------

  
  &error iter 69        
-------------------------------------------------------
  Energy   MaxStDev:          0.0000    
  Gradient MaxStDev:          0.0000    
  Nac      MaxStDev:          0.0000    
  Soc      MaxStDev:          0.0000    
-------------------------------------------------------

  Iter:       70  Ekin =           0.0972634649444704 au T =  1365.04 K dt =         20 CI:   2
  Root chosen for geometry opt   2

  Gnuplot:           0.0000129557118290           0.9999870442879910        -302.8959615829154473        -302.7972611505909981        -302.7972611505909981
  **
  **
  **
  A surface hopping is not allowed
  **
  At state:   2


  &surface hopping information
-------------------------------------------------------

    Random number:             0.88738877
    Accumulated probability:   0.00000157
    state mult  level   probability 
    1     1     1       0.00000157
    2     1     2       0.00000000

    
-------------------------------------------------------

  
  &error iter 70        
-------------------------------------------------------
  Energy   MaxStDev:          0.0000    
  Gradient MaxStDev:          0.0000    
  Nac      MaxStDev:          0.0000    
  Soc      MaxStDev:          0.0000    
-------------------------------------------------------

  Iter:       71  Ekin =           0.1019451064317635 au T =  1430.74 K dt =         20 CI:   2
  Root chosen for geometry opt   2

  Gnuplot:           0.0000138154685039           0.9999861845317355        -302.8986967418246081        -302.8019877312336803        -302.8019877312336803
  **
  **
  **
  A surface hopping is not allowed
  **
  At state:   2


  &surface hopping information
-------------------------------------------------------

    Random number:             0.21293491
    Accumulated probability:   0.00000156
    state mult  level   probability 
    1     1     1       0.00000156
    2     1     2       0.00000000

    
-------------------------------------------------------

  
  &error iter 71        
-------------------------------------------------------
  Energy   MaxStDev:          0.0000    
  Gradient MaxStDev:          0.0000    
  Nac      MaxStDev:          0.0000    
  Soc      MaxStDev:          0.0000    
-------------------------------------------------------

  Iter:       72  Ekin =           0.1085054105695830 au T =  1522.81 K dt =         20 CI:   2
  Root chosen for geometry opt   2

  Gnuplot:           0.0000140201065843           0.9999859798936086        -302.9027530230540606        -302.8088178178539920        -302.8088178178539920
  **
  **
  **
  A surface hopping is not allowed
  **
  At state:   2


  &surface hopping information
-------------------------------------------------------

    Random number:             0.67282635
    Accumulated probability:   0.00000163
    state mult  level   probability 
    1     1     1       0.00000163
    2     1     2       0.00000000

    
[...]
  **
  **
  **
  A surface hopping is not allowed
  **
  At state:   1


  &surface hopping information
-------------------------------------------------------

    Random number:             0.64501590
    Accumulated probability:   0.00000021
    state mult  level   probability 
    1     1     1       0.00000000
    2     1     2       0.00000021

    
-------------------------------------------------------

  
  &error iter 1981      
-------------------------------------------------------
  Energy   MaxStDev:          0.0000    
  Gradient MaxStDev:          0.0000    
  Nac      MaxStDev:          0.0000    
  Soc      MaxStDev:          0.0000    
-------------------------------------------------------

  Iter:     1982  Ekin =           0.2313470369719407 au T =  3246.83 K dt =         20 CI:   2
  Root chosen for geometry opt   1

  Gnuplot:           0.9999998733687647           0.0000001266312339        -302.9321428643455079        -302.7394022462026442        -302.9321428643455079
  **
  **
  **
  A surface hopping is not allowed
  **
  At state:   1


  &surface hopping information
-------------------------------------------------------

    Random number:             0.45798120
    Accumulated probability:   0.00000002
    state mult  level   probability 
    1     1     1       0.00000000
    2     1     2       0.00000002

    
-------------------------------------------------------

  
  &error iter 1982      
-------------------------------------------------------
  Energy   MaxStDev:          0.0000    
  Gradient MaxStDev:          0.0000    
  Nac      MaxStDev:          0.0000    
  Soc      MaxStDev:          0.0000    
-------------------------------------------------------

  Iter:     1983  Ekin =           0.2329092024075713 au T =  3268.75 K dt =         20 CI:   2
  Root chosen for geometry opt   1

  Gnuplot:           0.9999999029983897           0.0000000970016071        -302.9336907283357618        -302.7439586256656980        -302.9336907283357618
  **
  **
  **
  A surface hopping is not allowed
  **
  At state:   1


  &surface hopping information
-------------------------------------------------------

    Random number:             0.44864148
    Accumulated probability:   0.00000004
    state mult  level   probability 
    1     1     1       0.00000000
    2     1     2       0.00000004

    
-------------------------------------------------------

  
  &error iter 1983      
-------------------------------------------------------
  Energy   MaxStDev:          0.0000    
  Gradient MaxStDev:          0.0000    
  Nac      MaxStDev:          0.0000    
  Soc      MaxStDev:          0.0000    
-------------------------------------------------------

  Iter:     1984  Ekin =           0.2314694039555552 au T =  3248.55 K dt =         20 CI:   2
  Root chosen for geometry opt   1

  Gnuplot:           0.9999999609506567           0.0000000390493443        -302.9321081920723486        -302.7439714305259599        -302.9321081920723486
  **
  **
  **
  A surface hopping is not allowed
  **
  At state:   1


  &surface hopping information
-------------------------------------------------------

    Random number:             0.06647816
    Accumulated probability:   0.00000001
    state mult  level   probability 
    1     1     1       0.00000000
    2     1     2       0.00000001

    
-------------------------------------------------------

  
  &error iter 1984      
-------------------------------------------------------
  Energy   MaxStDev:          0.0000    
  Gradient MaxStDev:          0.0000    
  Nac      MaxStDev:          0.0000    
  Soc      MaxStDev:          0.0000    
-------------------------------------------------------

  Iter:     1985  Ekin =           0.2286248556681992 au T =  3208.62 K dt =         20 CI:   2
  Root chosen for geometry opt   1

  Gnuplot:           0.9999999741354024           0.0000000258645977        -302.9291347771111873        -302.7417509374243991        -302.9291347771111873
  **
  **
  **
  A surface hopping is not allowed
  **
  At state:   1


  &surface hopping information
-------------------------------------------------------

    Random number:             0.79867232
    Accumulated probability:   0.00000002
    state mult  level   probability 
    1     1     1       0.00000000
    2     1     2       0.00000002

    
-------------------------------------------------------

  
  &error iter 1985      
-------------------------------------------------------
  Energy   MaxStDev:          0.0000    
  Gradient MaxStDev:          0.0000    
  Nac      MaxStDev:          0.0000    
  Soc      MaxStDev:          0.0000    
-------------------------------------------------------

  Iter:     1986  Ekin =           0.2261205215967314 au T =  3173.48 K dt =         20 CI:   2
  Root chosen for geometry opt   1

  Gnuplot:           0.9999996356406200           0.0000003643593711        -302.9265545583658650        -302.7394490572109476        -302.9265545583658650
  **
  **
  **
  A surface hopping is not allowed
  **
  At state:   1


  &surface hopping information
-------------------------------------------------------

    Random number:             0.98079145
    Accumulated probability:   0.00000016
    state mult  level   probability 
    1     1     1       0.00000000
    2     1     2       0.00000016

    
-------------------------------------------------------

  
  &error iter 1986      
-------------------------------------------------------
  Energy   MaxStDev:          0.0000    
  Gradient MaxStDev:          0.0000    
  Nac      MaxStDev:          0.0000    
  Soc      MaxStDev:          0.0000    
-------------------------------------------------------

  Iter:     1987  Ekin =           0.2250222259334637 au T =  3158.06 K dt =         20 CI:   2
  Root chosen for geometry opt   1

  Gnuplot:           0.9999996445303907           0.0000003554696231        -302.9254401158999599        -302.7382685306495205        -302.9254401158999599
  **
  **
  **
  A surface hopping is not allowed
  **
  At state:   1


  &surface hopping information
-------------------------------------------------------

    Random number:             0.32165313
    Accumulated probability:   0.00000012
    state mult  level   probability 
    1     1     1       0.00000000
    2     1     2       0.00000012

    
-------------------------------------------------------

  
  &error iter 1987      
-------------------------------------------------------
  Energy   MaxStDev:          0.0000    
  Gradient MaxStDev:          0.0000    
  Nac      MaxStDev:          0.0000    
  Soc      MaxStDev:          0.0000    
-------------------------------------------------------

  Iter:     1988  Ekin =           0.2256629582747036 au T =  3167.06 K dt =         20 CI:   2
  Root chosen for geometry opt   1

  Gnuplot:           0.9999999814417269           0.0000000185582725        -302.9260871138531002        -302.7386988448484431        -302.9260871138531002
  **
  **
  **
  A surface hopping is not allowed
  **
  At state:   1


  &surface hopping information
-------------------------------------------------------

    Random number:             0.78811175
    Accumulated probability:   0.00000000
    state mult  level   probability 
    1     1     1       0.00000000
    2     1     2       0.00000000

    
-------------------------------------------------------

  
  &error iter 1988      
-------------------------------------------------------
  Energy   MaxStDev:          0.0000    
  Gradient MaxStDev:          0.0000    
  Nac      MaxStDev:          0.0000    
  Soc      MaxStDev:          0.0000    
-------------------------------------------------------

  Iter:     1989  Ekin =           0.2279606397355737 au T =  3199.30 K dt =         20 CI:   2
  Root chosen for geometry opt   1

  Gnuplot:           0.9999996948364469           0.0000003051635424        -302.9284052565058118        -302.7408072688423317        -302.9284052565058118
  **
  **
  **
  A surface hopping is not allowed
  **
  At state:   1


  &surface hopping information
-------------------------------------------------------

    Random number:             0.90338302
    Accumulated probability:   0.00000015
    state mult  level   probability 
    1     1     1       0.00000000
    2     1     2       0.00000015

    
-------------------------------------------------------

  
  &error iter 1989      
-------------------------------------------------------
  Energy   MaxStDev:          0.0000    
  Gradient MaxStDev:          0.0000    
  Nac      MaxStDev:          0.0000    
  Soc      MaxStDev:          0.0000    
-------------------------------------------------------

  Iter:     1990  Ekin =           0.2315684301098189 au T =  3249.94 K dt =         20 CI:   2
  Root chosen for geometry opt   1

  Gnuplot:           0.9999990140981936           0.0000009859018150        -302.9320561269748850        -302.7442354941258600        -302.9320561269748850
  **
  **
  **
  A surface hopping is not allowed
  **
  At state:   1


  &surface hopping information
-------------------------------------------------------

    Random number:             0.69175953
    Accumulated probability:   0.00000041
    state mult  level   probability 
    1     1     1       0.00000000
    2     1     2       0.00000041

    
-------------------------------------------------------

  
  &error iter 1990      
-------------------------------------------------------
  Energy   MaxStDev:          0.0000    
  Gradient MaxStDev:          0.0000    
  Nac      MaxStDev:          0.0000    
  Soc      MaxStDev:          0.0000    
-------------------------------------------------------

  Iter:     1991  Ekin =           0.2358210036408701 au T =  3309.62 K dt =         20 CI:   2
  Root chosen for geometry opt   1

  Gnuplot:           0.9999987320238688           0.0000012679761561        -302.9363781092816339        -302.7480838637207512        -302.9363781092816339
  **
  **
  **
  A surface hopping is not allowed
  **
  At state:   1


  &surface hopping information
-------------------------------------------------------

    Random number:             0.03988383
    Accumulated probability:   0.00000047
    state mult  level   probability 
    1     1     1       0.00000000
    2     1     2       0.00000047

    
-------------------------------------------------------

  
  &error iter 1991      
-------------------------------------------------------
  Energy   MaxStDev:          0.0000    
  Gradient MaxStDev:          0.0000    
  Nac      MaxStDev:          0.0000    
  Soc      MaxStDev:          0.0000    
-------------------------------------------------------

  Iter:     1992  Ekin =           0.2397640964798040 au T =  3364.96 K dt =         20 CI:   2
  Root chosen for geometry opt   1

  Gnuplot:           0.9999991982091387           0.0000008017908852        -302.9403921589659490        -302.7510367575166015        -302.9403921589659490
  **
  **
  **
  A surface hopping is not allowed
  **
  At state:   1


  &surface hopping information
-------------------------------------------------------

    Random number:             0.53074545
    Accumulated probability:   0.00000026
    state mult  level   probability 
    1     1     1       0.00000000
    2     1     2       0.00000026

    
-------------------------------------------------------

  
  &error iter 1992      
-------------------------------------------------------
  Energy   MaxStDev:          0.0000    
  Gradient MaxStDev:          0.0000    
  Nac      MaxStDev:          0.0000    
  Soc      MaxStDev:          0.0000    
-------------------------------------------------------

  Iter:     1993  Ekin =           0.2424949378671587 au T =  3403.28 K dt =         20 CI:   2
  Root chosen for geometry opt   1

  Gnuplot:           0.9999998452205432           0.0000001547794587        -302.9431604629942285        -302.7521013259689653        -302.9431604629942285
  **
  **
  **
  A surface hopping is not allowed
  **
  At state:   1


  &surface hopping information
-------------------------------------------------------

    Random number:             0.43270925
    Accumulated probability:   0.00000003
    state mult  level   probability 
    1     1     1       0.00000000
    2     1     2       0.00000003

    
-------------------------------------------------------

  
  &error iter 1993      
-------------------------------------------------------
  Energy   MaxStDev:          0.0000    
  Gradient MaxStDev:          0.0000    
  Nac      MaxStDev:          0.0000    
  Soc      MaxStDev:          0.0000    
-------------------------------------------------------

  Iter:     1994  Ekin =           0.2435971498983203 au T =  3418.75 K dt =         20 CI:   2
  Root chosen for geometry opt   1

  Gnuplot:           0.9999999863577083           0.0000000136422920        -302.9442584168425583        -302.7510732496328387        -302.9442584168425583
  **
  **
  **
  A surface hopping is not allowed
  **
  At state:   1


  &surface hopping information
-------------------------------------------------------

    Random number:             0.41259766
    Accumulated probability:   0.00000001
    state mult  level   probability 
    1     1     1       0.00000000
    2     1     2       0.00000001

    
-------------------------------------------------------

  
  &error iter 1994      
-------------------------------------------------------
  Energy   MaxStDev:          0.0000    
  Gradient MaxStDev:          0.0000    
  Nac      MaxStDev:          0.0000    
  Soc      MaxStDev:          0.0000    
-------------------------------------------------------

  Iter:     1995  Ekin =           0.2431987993195548 au T =  3413.16 K dt =         20 CI:   2
  Root chosen for geometry opt   1

  Gnuplot:           0.9999999874513517           0.0000000125486479        -302.9438466533053997        -302.7480445337354809        -302.9438466533053997
  **
  **
  **
  A surface hopping is not allowed
  **
  At state:   1


  &surface hopping information
-------------------------------------------------------

    Random number:             0.93951470
    Accumulated probability:   0.00000000
    state mult  level   probability 
    1     1     1       0.00000000
    2     1     2       0.00000000

    
-------------------------------------------------------

  
  &error iter 1995      
-------------------------------------------------------
  Energy   MaxStDev:          0.0000    
  Gradient MaxStDev:          0.0000    
  Nac      MaxStDev:          0.0000    
  Soc      MaxStDev:          0.0000    
-------------------------------------------------------

  Iter:     1996  Ekin =           0.2414144721549886 au T =  3388.12 K dt =         20 CI:   2
  Root chosen for geometry opt   1

  Gnuplot:           0.9999997419037072           0.0000002580962862        -302.9421132695321717        -302.7428539070211286        -302.9421132695321717
  **
  **
  **
  A surface hopping is not allowed
  **
  At state:   1


  &surface hopping information
-------------------------------------------------------

    Random number:             0.79703617
    Accumulated probability:   0.00000015
    state mult  level   probability 
    1     1     1       0.00000000
    2     1     2       0.00000015

    
-------------------------------------------------------

  
  &error iter 1996      
-------------------------------------------------------
  Energy   MaxStDev:          0.0000    
  Gradient MaxStDev:          0.0000    
  Nac      MaxStDev:          0.0000    
  Soc      MaxStDev:          0.0000    
-------------------------------------------------------

  Iter:     1997  Ekin =           0.2375336622188562 au T =  3333.65 K dt =         20 CI:   2
  Root chosen for geometry opt   1

  Gnuplot:           0.9999982983765676           0.0000017016234839        -302.9383514512148281        -302.7350859481317116        -302.9383514512148281
  **
  **
  **
  A surface hopping is not allowed
  **
  At state:   1


  &surface hopping information
-------------------------------------------------------

    Random number:             0.37998524
    Accumulated probability:   0.00000082
    state mult  level   probability 
    1     1     1       0.00000000
    2     1     2       0.00000082

    
-------------------------------------------------------

  
  &error iter 1997      
-------------------------------------------------------
  Energy   MaxStDev:          0.0000    
  Gradient MaxStDev:          0.0000    
  Nac      MaxStDev:          0.0000    
  Soc      MaxStDev:          0.0000    
-------------------------------------------------------

  Iter:     1998  Ekin =           0.2301978511263530 au T =  3230.70 K dt =         20 CI:   2
  Root chosen for geometry opt   1

  Gnuplot:           0.9999980910079103           0.0000019089920828        -302.9310698488083631        -302.7245009473694495        -302.9310698488083631
  **
  **
  **
  A surface hopping is not allowed
  **
  At state:   1


  &surface hopping information
-------------------------------------------------------

    Random number:             0.30053672
    Accumulated probability:   0.00000077
    state mult  level   probability 
    1     1     1       0.00000000
    2     1     2       0.00000077

    
-------------------------------------------------------

  
  &error iter 1998      
-------------------------------------------------------
  Energy   MaxStDev:          0.0000    
  Gradient MaxStDev:          0.0000    
  Nac      MaxStDev:          0.0000    
  Soc      MaxStDev:          0.0000    
-------------------------------------------------------

  Iter:     1999  Ekin =           0.2191620294368261 au T =  3075.82 K dt =         20 CI:   2
  Root chosen for geometry opt   1

  Gnuplot:           0.9999993318295992           0.0000006681704240        -302.9198707049092718        -302.7119202056091467        -302.9198707049092718
  **
  **
  **
  A surface hopping is not allowed
  **
  At state:   1


  &surface hopping information
-------------------------------------------------------

    Random number:             0.23205863
    Accumulated probability:   0.00000019
    state mult  level   probability 
    1     1     1       0.00000000
    2     1     2       0.00000019

    
-------------------------------------------------------

  
  &error iter 1999      
-------------------------------------------------------
  Energy   MaxStDev:          0.0000    
  Gradient MaxStDev:          0.0000    
  Nac      MaxStDev:          0.0000    
  Soc      MaxStDev:          0.0000    
-------------------------------------------------------

  Iter:     2000  Ekin =           0.2071265163865000 au T =  2906.91 K dt =         20 CI:   2
  Root chosen for geometry opt   1

  Gnuplot:           0.9999997815090467           0.0000002184909556        -302.9075019741002848        -302.7006562396077243        -302.9075019741002848
  **
  **
  **
  A surface hopping is not allowed
  **
  At state:   1


  &surface hopping information
-------------------------------------------------------

    Random number:             0.02354602
    Accumulated probability:   0.00000006
    state mult  level   probability 
    1     1     1       0.00000000
    2     1     2       0.00000006

    
-------------------------------------------------------

  
  &error iter 2000      
-------------------------------------------------------
  Energy   MaxStDev:          0.0000    
  Gradient MaxStDev:          0.0000    
  Nac      MaxStDev:          0.0000    
  Soc      MaxStDev:          0.0000    
-------------------------------------------------------


Nonadiabatic Molecular Dynamics End:  2026-02-25 10:53:32 Total:     0 days     0 hours     6 minutes    36 seconds
