Nonadiabatic Molecular Dynamics Start:  2026-02-25 10:46:56


  -------------------------------------------------------------------
                              /\
   |\    /|                  /++\
   ||\  /||                 /++++\
   || \/ || ||             /++++++\
   ||    || ||            /PyRAI2MD\
   ||    || ||           /++++++++++\                    __
            ||          /++++++++++++\    |\ |  /\  |\/| | \
            ||__ __    *==============*   | \| /--\ |  | |_/

                          Python Rapid
                     Artificial Intelligence
                  Ab Initio Molecular Dynamics



                      Author @Jingbai Li
                      
                      
    2022 – present   Hoffmann Institute of Advanced Materials
                     Shenzhen Polytechnic, Shenzhen, China    
                                
    2019 – 2022      Department of Chemistry and Chemical Biology
                     Northeastern University, Boston, USA

                          version:   2.5.1

  With contributions from (in alphabetic order):
    Jingbai Li     - Fewest switches surface hopping
                     Zhu-Nakamura surface hopping
                     Velocity Verlet
                     OpenMolcas interface
                     OpenMolcas/Tinker interface
                     BAGEL interface
                     ORCA interface
                     OpenQP interface
                     GFN-xTB interface
                     Adaptive sampling
                     Grid search
                     Multilayer ONIOM (QM:QM' and QM:QM':MM)
                     Periodic boundary condition
                     Wall potential
                     QC/ML hybrid NAMD
                     Excited-State Neural Network Potentials (ESNNP)

    Patrick Reiser - Fully connected neural networks (pyNNsMD)
                     SchNet (pyNNsMD)

  Special acknowledgement to:
    Steven A. Lopez            - Project co-founder
    Pascal Friederich          - Project co-founder




  &control
-------------------------------------------------------
  Title:                      dbh-2     
  NPROCS for ML:              1         
  NPROCS for QC:              1         
  NPROCS for Multiscale:      1          
  Seed:                       1         
  Job: 	                      md        
  QM:          	       	      nequip    
  Ab initio:                  molcas    
-------------------------------------------------------

        
  &molecule
-------------------------------------------------------
  States:                     [2]       
  Spin:                       [0]       
  Interstates:                [[1, 2]]  
  QMMM keyfile:               None      
  QMMM xyzfile:               Input     
  High level region:          []         ...
  Middel level region:        []         ...
  Boundary:                   []         ...
  Embedding charges:          False     
  Reading charge:             False     
  Frozen atoms:               []        
  Constrained atoms:          []        
  Restrained bonds:           []        
  Restrained angles:          []        
  Restrained dihedrals:       []        
  Restrained bond value:      []        
  Restrained angle value:     []        
  Restrained dihedral value:  []        
  Bond potential scale:       10.0      
  Angle potential scale:      0.005     
  Dihedral potential scale:   1e-06     
  External potential shape:   ['ellipsoid']
  External potential radius:  []        
  External potential factor:  [40]      
  External potential scale:   [1.0]       
  Compress potential volume:  []        
  Potential center:           []        
  Potential center type:      xyz       
  Constrained groups          []        
  Track geometry type:        None      
  Track indices:              []        
  Track threshold:            []        
  Track stop task:            0         
  Lattice vectors:            []        
  Lattice constant:           []        
  Periodic boundary condition []        
-------------------------------------------------------

        
  &initial condition
-------------------------------------------------------
  Generate initial condition: 0         
  Number:                     5000      
  Method:                     wigner     
  Format:                     molden    
-------------------------------------------------------

        
  &md
-------------------------------------------------------
  Initial state:              2         
  Initialize random velocity  0         
  Temperature (K):            300       
  Step:                       2000      
  Dt (au):                    20.67     
  Only active state grad      0         
  Surface hopping:            fssh      
  NAC type:                   nac       
  Phase correction            1         
  Population reset            0         
  Substep:                    20        
  Integrate probability       0         
  Decoherence:                0.1       
  Adjust velocity:            2         
  Reflect velocity:           1         
  Maxhop:                     10        
  IC hopping gap threshold    0.5       
  ISC hopping gap threshold   0.5       
  Thermodynamic:              off       
  Thermodynamic delay:        200       
  Print level:                0         
  Direct output:              2000      
  Buffer output:              0         
  Record MD data:             1         
  Record MD steps:            0         
  Checkpoint steps:           1          
  Restart function:           0         
  Additional steps:           0         
-------------------------------------------------------

        
  &md velocity control
-------------------------------------------------------
  Excess kinetic energy       0         
  Scale kinetic energy        1         
  Target kinetic energy       0         
  Gradient descent path       0         
  Reset velocity:             0         
  Reset step:                 0         
-------------------------------------------------------

        
  &nequip
-------------------------------------------------------
  Train data:                 None      
  Prediction data:            None      
  Train mode:                 training  
  Silent mode:                1         
  Data splits:                10        
  NN EG type:                 1         
  NN NAC type:                0         
  NN SOC type:                0         
  Multiscale:                 []        
  Shuffle data:               False     
  EG unit:                    si        
  NAC unit:                   si        
  SOC unit:                   cm-1
  Select EG output:           []        
  Select NAC output:          []        
  Select SOC output:          []          
  Data permutation            No        
  Elements                              
-------------------------------------------------------

        

  NequIP-NAC (Energy + Gradient + NAC)

  &hyperparameters            Energy+Gradient      Nonadiabatic         Spin-orbit
----------------------------------------------------------------------------------------------
  Model type:                 NequIPeg            NequIPnac           n/a          
  Model path:                 dbh-2.nequip.pth     dbh-2.nequip.pth     n/a                 
  GPU:                        1                    1                    n/a                 
  Chemical symbols:           auto                 auto                 n/a                 
----------------------------------------------------------------------------------------------
        


 *---------------------------------------------------*
 |                                                   |
 |          Nonadiabatic Molecular Dynamics          |
 |                                                   |
 *---------------------------------------------------*


  State order:         1   2
  Multiplicity:        1   1

  QMMM key:         None
  QMMM xyz          Input
  Active atoms:     15
  Inactive atoms:   0
  Link atoms:       0
  Highlevel atoms:  15
  Midlevel atoms:   0
  Lowlevel atoms:   0
  
  Lattice vector:   None
  Periodic X/Y/Z:   None

  Iter:        1  Ekin =           0.0430628871123264 au T =   604.36 K dt =         20 CI:   2
  Root chosen for geometry opt   2

  Gnuplot:           0.0000000000000000           1.0000000000000000        -302.9534236049019000        -302.7916037674818313        -302.7916037674818313
  **
  **
  **
  A surface hopping is not allowed
  **
  At state:   2


  &surface hopping information
-------------------------------------------------------
  No surface hopping is performed
-------------------------------------------------------

  
  &error iter 1         
-------------------------------------------------------
  Energy   MaxStDev:          0.0000    
  Gradient MaxStDev:          0.0000    
  Nac      MaxStDev:          0.0000    
  Soc      MaxStDev:          0.0000    
-------------------------------------------------------

  Iter:        2  Ekin =           0.0499264165272608 au T =   700.69 K dt =         20 CI:   2
  Root chosen for geometry opt   2

  Gnuplot:           0.0000000000000000           1.0000000000000000        -302.9612830662393321        -302.7987140428490989        -302.7987140428490989
  **
  **
  **
  A surface hopping is not allowed
  **
  At state:   2


  &surface hopping information
-------------------------------------------------------
  No surface hopping is performed
-------------------------------------------------------

  
  &error iter 2         
-------------------------------------------------------
  Energy   MaxStDev:          0.0000    
  Gradient MaxStDev:          0.0000    
  Nac      MaxStDev:          0.0000    
  Soc      MaxStDev:          0.0000    
-------------------------------------------------------

  Iter:        3  Ekin =           0.0553633542262067 au T =   776.99 K dt =         20 CI:   2
  Root chosen for geometry opt   2

  Gnuplot:           0.0000000000000000           1.0000000000000000        -302.9676208760930081        -302.8042928262503892        -302.8042928262503892
  **
  **
  **
  A surface hopping is not allowed
  **
  At state:   2


  &surface hopping information
-------------------------------------------------------
  No surface hopping is performed
-------------------------------------------------------

  
  &error iter 3         
-------------------------------------------------------
  Energy   MaxStDev:          0.0000    
  Gradient MaxStDev:          0.0000    
  Nac      MaxStDev:          0.0000    
  Soc      MaxStDev:          0.0000    
-------------------------------------------------------

  Iter:        4  Ekin =           0.0570200208664816 au T =   800.24 K dt =         20 CI:   2
  Root chosen for geometry opt   2

  Gnuplot:           0.0000004716743220           0.9999995283256737        -302.9700870645529562        -302.8059515490421632        -302.8059515490421632
  **
  **
  **
  A surface hopping is not allowed
  **
  At state:   2


  &surface hopping information
-------------------------------------------------------

    Random number:             0.53182757
    Accumulated probability:   0.00000003
    state mult  level   probability 
    1     1     1       0.00000003
    2     1     2       0.00000000

    
-------------------------------------------------------

  
  &error iter 4         
-------------------------------------------------------
  Energy   MaxStDev:          0.0000    
  Gradient MaxStDev:          0.0000    
  Nac      MaxStDev:          0.0000    
  Soc      MaxStDev:          0.0000    
-------------------------------------------------------

  Iter:        5  Ekin =           0.0545805451500321 au T =   766.01 K dt =         20 CI:   2
  Root chosen for geometry opt   2

  Gnuplot:           0.0000001108842489           0.9999998891157489        -302.9683421976070008        -302.8034129729878146        -302.8034129729878146
  **
  **
  **
  A surface hopping is not allowed
  **
  At state:   2


  &surface hopping information
-------------------------------------------------------

    Random number:             0.50183666
    Accumulated probability:   0.00000002
    state mult  level   probability 
    1     1     1       0.00000002
    2     1     2       0.00000000

    
-------------------------------------------------------

  
  &error iter 5         
-------------------------------------------------------
  Energy   MaxStDev:          0.0000    
  Gradient MaxStDev:          0.0000    
  Nac      MaxStDev:          0.0000    
  Soc      MaxStDev:          0.0000    
-------------------------------------------------------

  Iter:        6  Ekin =           0.0492806362190056 au T =   691.63 K dt =         20 CI:   2
  Root chosen for geometry opt   2

  Gnuplot:           0.0000001311488705           0.9999998688511340        -302.9635262466927657        -302.7979812419436030        -302.7979812419436030
  **
  **
  **
  A surface hopping is not allowed
  **
  At state:   2


  &surface hopping information
-------------------------------------------------------

    Random number:             0.51042235
    Accumulated probability:   0.00000001
    state mult  level   probability 
    1     1     1       0.00000001
    2     1     2       0.00000000

    
-------------------------------------------------------

  
  &error iter 6         
-------------------------------------------------------
  Energy   MaxStDev:          0.0000    
  Gradient MaxStDev:          0.0000    
  Nac      MaxStDev:          0.0000    
  Soc      MaxStDev:          0.0000    
-------------------------------------------------------

  Iter:        7  Ekin =           0.0429578590422179 au T =   602.89 K dt =         20 CI:   2
  Root chosen for geometry opt   2

  Gnuplot:           0.0000000511490158           0.9999999488509843        -302.9573975961329779        -302.7915487481549803        -302.7915487481549803
  **
  **
  **
  A surface hopping is not allowed
  **
  At state:   2


  &surface hopping information
-------------------------------------------------------

    Random number:             0.69552952
    Accumulated probability:   0.00000000
    state mult  level   probability 
    1     1     1       0.00000000
    2     1     2       0.00000000

    
-------------------------------------------------------

  
  &error iter 7         
-------------------------------------------------------
  Energy   MaxStDev:          0.0000    
  Gradient MaxStDev:          0.0000    
  Nac      MaxStDev:          0.0000    
  Soc      MaxStDev:          0.0000    
-------------------------------------------------------

  Iter:        8  Ekin =           0.0372616559919209 au T =   522.95 K dt =         20 CI:   2
  Root chosen for geometry opt   2

  Gnuplot:           0.0000000267065237           0.9999999732934768        -302.9515889535118731        -302.7857819373397774        -302.7857819373397774
  **
  **
  **
  A surface hopping is not allowed
  **
  At state:   2


  &surface hopping information
-------------------------------------------------------

    Random number:             0.34345600
    Accumulated probability:   0.00000000
    state mult  level   probability 
    1     1     1       0.00000000
    2     1     2       0.00000000

    
-------------------------------------------------------

  
  &error iter 8         
-------------------------------------------------------
  Energy   MaxStDev:          0.0000    
  Gradient MaxStDev:          0.0000    
  Nac      MaxStDev:          0.0000    
  Soc      MaxStDev:          0.0000    
-------------------------------------------------------

  Iter:        9  Ekin =           0.0333496602428005 au T =   468.04 K dt =         20 CI:   2
  Root chosen for geometry opt   2

  Gnuplot:           0.0000000096764398           0.9999999903235599        -302.9473336989049699        -302.7818275353914146        -302.7818275353914146
  **
  **
  **
  A surface hopping is not allowed
  **
  At state:   2


  &surface hopping information
-------------------------------------------------------

    Random number:             0.98834544
    Accumulated probability:   0.00000000
    state mult  level   probability 
    1     1     1       0.00000000
    2     1     2       0.00000000

    
-------------------------------------------------------

  
  &error iter 9         
-------------------------------------------------------
  Energy   MaxStDev:          0.0000    
  Gradient MaxStDev:          0.0000    
  Nac      MaxStDev:          0.0000    
  Soc      MaxStDev:          0.0000    
-------------------------------------------------------

  Iter:       10  Ekin =           0.0319662662434834 au T =   448.63 K dt =         20 CI:   2
  Root chosen for geometry opt   2

  Gnuplot:           0.0000000032884407           0.9999999967115594        -302.9454804448375853        -302.7804162274489386        -302.7804162274489386
  **
  **
  **
  A surface hopping is not allowed
  **
  At state:   2


  &surface hopping information
-------------------------------------------------------

    Random number:             0.54776359
    Accumulated probability:   0.00000000
    state mult  level   probability 
    1     1     1       0.00000000
    2     1     2       0.00000000

    
-------------------------------------------------------

  
  &error iter 10        
-------------------------------------------------------
  Energy   MaxStDev:          0.0000    
  Gradient MaxStDev:          0.0000    
  Nac      MaxStDev:          0.0000    
  Soc      MaxStDev:          0.0000    
-------------------------------------------------------

  Iter:       11  Ekin =           0.0335793586358517 au T =   471.27 K dt =         20 CI:   2
  Root chosen for geometry opt   2

  Gnuplot:           0.0000000002827560           0.9999999997172441        -302.9465281282869000        -302.7820199876372840        -302.7820199876372840
  **
  **
  **
  A surface hopping is not allowed
  **
  At state:   2


  &surface hopping information
-------------------------------------------------------

    Random number:             0.44032788
    Accumulated probability:   0.00000000
    state mult  level   probability 
    1     1     1       0.00000000
    2     1     2       0.00000000

    
-------------------------------------------------------

  
  &error iter 11        
-------------------------------------------------------
  Energy   MaxStDev:          0.0000    
  Gradient MaxStDev:          0.0000    
  Nac      MaxStDev:          0.0000    
  Soc      MaxStDev:          0.0000    
-------------------------------------------------------

  Iter:       12  Ekin =           0.0382943410798523 au T =   537.44 K dt =         20 CI:   2
  Root chosen for geometry opt   2

  Gnuplot:           0.0000000016930150           0.9999999983069850        -302.9505083586102501        -302.7867702273334771        -302.7867702273334771
  **
  **
  **
  A surface hopping is not allowed
  **
  At state:   2


  &surface hopping information
-------------------------------------------------------

    Random number:             0.42430687
    Accumulated probability:   0.00000000
    state mult  level   probability 
    1     1     1       0.00000000
    2     1     2       0.00000000

    
-------------------------------------------------------

  
  &error iter 12        
-------------------------------------------------------
  Energy   MaxStDev:          0.0000    
  Gradient MaxStDev:          0.0000    
  Nac      MaxStDev:          0.0000    
  Soc      MaxStDev:          0.0000    
-------------------------------------------------------

  Iter:       13  Ekin =           0.0455024282101569 au T =   638.60 K dt =         20 CI:   2
  Root chosen for geometry opt   2

  Gnuplot:           0.0000000125660355           0.9999999874339647        -302.9566937706786121        -302.7940867955479689        -302.7940867955479689
  **
  **
  **
  A surface hopping is not allowed
  **
  At state:   2


  &surface hopping information
-------------------------------------------------------

    Random number:             0.12175436
    Accumulated probability:   0.00000000
    state mult  level   probability 
    1     1     1       0.00000000
    2     1     2       0.00000000

    
-------------------------------------------------------

  
  &error iter 13        
-------------------------------------------------------
  Energy   MaxStDev:          0.0000    
  Gradient MaxStDev:          0.0000    
  Nac      MaxStDev:          0.0000    
  Soc      MaxStDev:          0.0000    
-------------------------------------------------------

  Iter:       14  Ekin =           0.0535507604273447 au T =   751.56 K dt =         20 CI:   2
  Root chosen for geometry opt   2

  Gnuplot:           0.0000000440739681           0.9999999559260324        -302.9633516259391968        -302.8023098219118765        -302.8023098219118765
  **
  **
  **
  A surface hopping is not allowed
  **
  At state:   2


  &surface hopping information
-------------------------------------------------------

    Random number:             0.18690374
    Accumulated probability:   0.00000001
    state mult  level   probability 
    1     1     1       0.00000001
    2     1     2       0.00000000

    
-------------------------------------------------------

  
  &error iter 14        
-------------------------------------------------------
  Energy   MaxStDev:          0.0000    
  Gradient MaxStDev:          0.0000    
  Nac      MaxStDev:          0.0000    
  Soc      MaxStDev:          0.0000    
-------------------------------------------------------

  Iter:       15  Ekin =           0.0599083421964674 au T =   840.78 K dt =         20 CI:   2
  Root chosen for geometry opt   2

  Gnuplot:           0.0000000948620184           0.9999999051379831        -302.9679621571220309        -302.8088496242057772        -302.8088496242057772
  **
  **
  **
  A surface hopping is not allowed
  **
  At state:   2


  &surface hopping information
-------------------------------------------------------

    Random number:             0.62630934
    Accumulated probability:   0.00000002
    state mult  level   probability 
    1     1     1       0.00000002
    2     1     2       0.00000000

    
-------------------------------------------------------

  
  &error iter 15        
-------------------------------------------------------
  Energy   MaxStDev:          0.0000    
  Gradient MaxStDev:          0.0000    
  Nac      MaxStDev:          0.0000    
  Soc      MaxStDev:          0.0000    
-------------------------------------------------------

  Iter:       16  Ekin =           0.0620455011915147 au T =   870.77 K dt =         20 CI:   2
  Root chosen for geometry opt   2

  Gnuplot:           0.0000001457808615           0.9999998542191406        -302.9681616928614858        -302.8110866345783734        -302.8110866345783734
  **
  **
  **
  A surface hopping is not allowed
  **
  At state:   2


  &surface hopping information
-------------------------------------------------------

    Random number:             0.26690581
    Accumulated probability:   0.00000002
    state mult  level   probability 
    1     1     1       0.00000002
    2     1     2       0.00000000

    
-------------------------------------------------------

  
  &error iter 16        
-------------------------------------------------------
  Energy   MaxStDev:          0.0000    
  Gradient MaxStDev:          0.0000    
  Nac      MaxStDev:          0.0000    
  Soc      MaxStDev:          0.0000    
-------------------------------------------------------

  Iter:       17  Ekin =           0.0587779091941936 au T =   824.92 K dt =         20 CI:   2
  Root chosen for geometry opt   2

  Gnuplot:           0.0000001994853121           0.9999998005146864        -302.9630070449059076        -302.8077491018489695        -302.8077491018489695
  **
  **
  **
  A surface hopping is not allowed
  **
  At state:   2


  &surface hopping information
-------------------------------------------------------

    Random number:             0.02619660
    Accumulated probability:   0.00000003
    state mult  level   probability 
    1     1     1       0.00000003
    2     1     2       0.00000000

    
-------------------------------------------------------

  
  &error iter 17        
-------------------------------------------------------
  Energy   MaxStDev:          0.0000    
  Gradient MaxStDev:          0.0000    
  Nac      MaxStDev:          0.0000    
  Soc      MaxStDev:          0.0000    
-------------------------------------------------------

  Iter:       18  Ekin =           0.0514229209290786 au T =   721.69 K dt =         20 CI:   2
  Root chosen for geometry opt   2

  Gnuplot:           0.0000002866482094           0.9999997133517979        -302.9538791872647607        -302.8001481607088294        -302.8001481607088294
  **
  **
  **
  A surface hopping is not allowed
  **
  At state:   2


  &surface hopping information
-------------------------------------------------------

    Random number:             0.59648693
    Accumulated probability:   0.00000004
    state mult  level   probability 
    1     1     1       0.00000004
    2     1     2       0.00000000

    
-------------------------------------------------------

  
  &error iter 18        
-------------------------------------------------------
  Energy   MaxStDev:          0.0000    
  Gradient MaxStDev:          0.0000    
  Nac      MaxStDev:          0.0000    
  Soc      MaxStDev:          0.0000    
-------------------------------------------------------

  Iter:       19  Ekin =           0.0436869730733115 au T =   613.12 K dt =         20 CI:   2
  Root chosen for geometry opt   2

  Gnuplot:           0.0000004211328933           0.9999995788671185        -302.9445837939775288        -302.7921293851968585        -302.7921293851968585
  **
  **
  **
  A surface hopping is not allowed
  **
  At state:   2


  &surface hopping information
-------------------------------------------------------

    Random number:             0.50056142
    Accumulated probability:   0.00000005
    state mult  level   probability 
    1     1     1       0.00000005
    2     1     2       0.00000000

    
-------------------------------------------------------

  
  &error iter 19        
-------------------------------------------------------
  Energy   MaxStDev:          0.0000    
  Gradient MaxStDev:          0.0000    
  Nac      MaxStDev:          0.0000    
  Soc      MaxStDev:          0.0000    
-------------------------------------------------------

  Iter:       20  Ekin =           0.0396412821426050 au T =   556.34 K dt =         20 CI:   2
  Root chosen for geometry opt   2

  Gnuplot:           0.0000005533866227           0.9999994466134012        -302.9395594369387936        -302.7879648769606433        -302.7879648769606433
  **
  **
  **
  A surface hopping is not allowed
  **
  At state:   2


  &surface hopping information
-------------------------------------------------------

    Random number:             0.24221981
    Accumulated probability:   0.00000006
    state mult  level   probability 
    1     1     1       0.00000006
    2     1     2       0.00000000

    
-------------------------------------------------------

  
  &error iter 20        
-------------------------------------------------------
  Energy   MaxStDev:          0.0000    
  Gradient MaxStDev:          0.0000    
  Nac      MaxStDev:          0.0000    
  Soc      MaxStDev:          0.0000    
-------------------------------------------------------

  Iter:       21  Ekin =           0.0410235375092188 au T =   575.74 K dt =         20 CI:   2
  Root chosen for geometry opt   2

  Gnuplot:           0.0000006464983542           0.9999993535016642        -302.9406133857553982        -302.7894623490793720        -302.7894623490793720
  **
  **
  **
  A surface hopping is not allowed
  **
  At state:   2


  &surface hopping information
-------------------------------------------------------

    Random number:             0.36418745
    Accumulated probability:   0.00000007
    state mult  level   probability 
    1     1     1       0.00000007
    2     1     2       0.00000000

    
-------------------------------------------------------

  
  &error iter 21        
-------------------------------------------------------
  Energy   MaxStDev:          0.0000    
  Gradient MaxStDev:          0.0000    
  Nac      MaxStDev:          0.0000    
  Soc      MaxStDev:          0.0000    
-------------------------------------------------------

  Iter:       22  Ekin =           0.0462054337828776 au T =   648.47 K dt =         20 CI:   2
  Root chosen for geometry opt   2

  Gnuplot:           0.0000007205808525           0.9999992794191712        -302.9457092742196096        -302.7948920409952507        -302.7948920409952507
  **
  **
  **
  A surface hopping is not allowed
  **
  At state:   2


  &surface hopping information
-------------------------------------------------------

    Random number:             0.23747823
    Accumulated probability:   0.00000009
    state mult  level   probability 
    1     1     1       0.00000009
    2     1     2       0.00000000

    
-------------------------------------------------------

  
  &error iter 22        
-------------------------------------------------------
  Energy   MaxStDev:          0.0000    
  Gradient MaxStDev:          0.0000    
  Nac      MaxStDev:          0.0000    
  Soc      MaxStDev:          0.0000    
-------------------------------------------------------

  Iter:       23  Ekin =           0.0515954440627478 au T =   724.11 K dt =         20 CI:   2
  Root chosen for geometry opt   2

  Gnuplot:           0.0000007204253332           0.9999992795746948        -302.9509903073108035        -302.8004769867621349        -302.8004769867621349
  **
  **
  **
  A surface hopping is not allowed
  **
  At state:   2


  &surface hopping information
-------------------------------------------------------

    Random number:             0.84575248
    Accumulated probability:   0.00000008
    state mult  level   probability 
    1     1     1       0.00000008
    2     1     2       0.00000000

    
-------------------------------------------------------

  
  &error iter 23        
-------------------------------------------------------
  Energy   MaxStDev:          0.0000    
  Gradient MaxStDev:          0.0000    
  Nac      MaxStDev:          0.0000    
  Soc      MaxStDev:          0.0000    
-------------------------------------------------------

  Iter:       24  Ekin =           0.0541659679176655 au T =   760.19 K dt =         20 CI:   2
  Root chosen for geometry opt   2

  Gnuplot:           0.0000006014550060           0.9999993985450146        -302.9535679587135633        -302.8030847039887590        -302.8030847039887590
  **
  **
  **
  A surface hopping is not allowed
  **
  At state:   2


  &surface hopping information
-------------------------------------------------------

    Random number:             0.86335337
    Accumulated probability:   0.00000006
    state mult  level   probability 
    1     1     1       0.00000006
    2     1     2       0.00000000

    
-------------------------------------------------------

  
  &error iter 24        
-------------------------------------------------------
  Energy   MaxStDev:          0.0000    
  Gradient MaxStDev:          0.0000    
  Nac      MaxStDev:          0.0000    
  Soc      MaxStDev:          0.0000    
-------------------------------------------------------

  Iter:       25  Ekin =           0.0529577999664226 au T =   743.23 K dt =         20 CI:   2
  Root chosen for geometry opt   2

  Gnuplot:           0.0000004195970752           0.9999995804029140        -302.9525688807525512        -302.8018010855035413        -302.8018010855035413
  **
  **
  **
  A surface hopping is not allowed
  **
  At state:   2


  &surface hopping information
-------------------------------------------------------

    Random number:             0.44169739
    Accumulated probability:   0.00000004
    state mult  level   probability 
    1     1     1       0.00000004
    2     1     2       0.00000000

    
-------------------------------------------------------

  
  &error iter 25        
-------------------------------------------------------
  Energy   MaxStDev:          0.0000    
  Gradient MaxStDev:          0.0000    
  Nac      MaxStDev:          0.0000    
  Soc      MaxStDev:          0.0000    
-------------------------------------------------------

  Iter:       26  Ekin =           0.0487470848919220 au T =   684.14 K dt =         20 CI:   2
  Root chosen for geometry opt   2

  Gnuplot:           0.0000002455665491           0.9999997544334462        -302.9486261302306502        -302.7974819106265727        -302.7974819106265727
  **
  **
  **
  A surface hopping is not allowed
  **
  At state:   2


  &surface hopping information
-------------------------------------------------------

    Random number:             0.92455190
    Accumulated probability:   0.00000002
    state mult  level   probability 
    1     1     1       0.00000002
    2     1     2       0.00000000

    
-------------------------------------------------------

  
  &error iter 26        
-------------------------------------------------------
  Energy   MaxStDev:          0.0000    
  Gradient MaxStDev:          0.0000    
  Nac      MaxStDev:          0.0000    
  Soc      MaxStDev:          0.0000    
-------------------------------------------------------

  Iter:       27  Ekin =           0.0430069817105831 au T =   603.58 K dt =         20 CI:   2
  Root chosen for geometry opt   2

  Gnuplot:           0.0000001179055970           0.9999998820944000        -302.9430665309903929        -302.7916453432018216        -302.7916453432018216
  **
  **
  **
  A surface hopping is not allowed
  **
  At state:   2


  &surface hopping information
-------------------------------------------------------

    Random number:             0.23008996
    Accumulated probability:   0.00000001
    state mult  level   probability 
    1     1     1       0.00000001
    2     1     2       0.00000000

    
-------------------------------------------------------

  
  &error iter 27        
-------------------------------------------------------
  Energy   MaxStDev:          0.0000    
  Gradient MaxStDev:          0.0000    
  Nac      MaxStDev:          0.0000    
  Soc      MaxStDev:          0.0000    
-------------------------------------------------------

  Iter:       28  Ekin =           0.0371690497830827 au T =   521.65 K dt =         20 CI:   2
  Root chosen for geometry opt   2

  Gnuplot:           0.0000000416168822           0.9999999583831176        -302.9372890587681013        -302.7857394816900864        -302.7857394816900864
  **
  **
  **
  A surface hopping is not allowed
  **
  At state:   2


  &surface hopping information
-------------------------------------------------------

    Random number:             0.74461544
    Accumulated probability:   0.00000000
    state mult  level   probability 
    1     1     1       0.00000000
    2     1     2       0.00000000

    
-------------------------------------------------------

  
  &error iter 28        
-------------------------------------------------------
  Energy   MaxStDev:          0.0000    
  Gradient MaxStDev:          0.0000    
  Nac      MaxStDev:          0.0000    
  Soc      MaxStDev:          0.0000    
-------------------------------------------------------

  Iter:       29  Ekin =           0.0323082437197922 au T =   453.43 K dt =         20 CI:   2
  Root chosen for geometry opt   2

  Gnuplot:           0.0000000066240169           0.9999999933759831        -302.9324227134062539        -302.7808381266697779        -302.7808381266697779
  **
  **
  **
  A surface hopping is not allowed
  **
  At state:   2


  &surface hopping information
-------------------------------------------------------

    Random number:             0.47777805
    Accumulated probability:   0.00000000
    state mult  level   probability 
    1     1     1       0.00000000
    2     1     2       0.00000000

    
-------------------------------------------------------

  
  &error iter 29        
-------------------------------------------------------
  Energy   MaxStDev:          0.0000    
  Gradient MaxStDev:          0.0000    
  Nac      MaxStDev:          0.0000    
  Soc      MaxStDev:          0.0000    
-------------------------------------------------------

  Iter:       30  Ekin =           0.0291292321893389 au T =   408.81 K dt =         20 CI:   2
  Root chosen for geometry opt   2

  Gnuplot:           0.0000000014083221           0.9999999985916780        -302.9292430986362774        -302.7776325100716690        -302.7776325100716690
  **
  **
  **
  A surface hopping is not allowed
  **
  At state:   2


  &surface hopping information
-------------------------------------------------------

    Random number:             0.67112660
    Accumulated probability:   0.00000000
    state mult  level   probability 
    1     1     1       0.00000000
    2     1     2       0.00000000

    
-------------------------------------------------------

  
  &error iter 30        
-------------------------------------------------------
  Energy   MaxStDev:          0.0000    
  Gradient MaxStDev:          0.0000    
  Nac      MaxStDev:          0.0000    
  Soc      MaxStDev:          0.0000    
-------------------------------------------------------

  Iter:       31  Ekin =           0.0281278102311927 au T =   394.76 K dt =         20 CI:   2
  Root chosen for geometry opt   2

  Gnuplot:           0.0000000111180425           0.9999999888819575        -302.9282829962734240        -302.7766075052735459        -302.7766075052735459
  **
  **
  **
  A surface hopping is not allowed
  **
  At state:   2


  &surface hopping information
-------------------------------------------------------

    Random number:             0.24862377
    Accumulated probability:   0.00000000
    state mult  level   probability 
    1     1     1       0.00000000
    2     1     2       0.00000000

    
-------------------------------------------------------

  
  &error iter 31        
-------------------------------------------------------
  Energy   MaxStDev:          0.0000    
  Gradient MaxStDev:          0.0000    
  Nac      MaxStDev:          0.0000    
  Soc      MaxStDev:          0.0000    
-------------------------------------------------------

  Iter:       32  Ekin =           0.0297003241306497 au T =   416.83 K dt =         20 CI:   2
  Root chosen for geometry opt   2

  Gnuplot:           0.0000000340852011           0.9999999659147996        -302.9299459294530266        -302.7781701111113080        -302.7781701111113080
  **
  **
  **
  A surface hopping is not allowed
  **
  At state:   2


  &surface hopping information
-------------------------------------------------------

    Random number:             0.95631200
    Accumulated probability:   0.00000000
    state mult  level   probability 
    1     1     1       0.00000000
    2     1     2       0.00000000

    
-------------------------------------------------------

  
  &error iter 32        
-------------------------------------------------------
  Energy   MaxStDev:          0.0000    
  Gradient MaxStDev:          0.0000    
  Nac      MaxStDev:          0.0000    
  Soc      MaxStDev:          0.0000    
-------------------------------------------------------

  Iter:       33  Ekin =           0.0339585374345965 au T =   476.59 K dt =         20 CI:   2
  Root chosen for geometry opt   2

  Gnuplot:           0.0000000907727446           0.9999999092272560        -302.9343624510123618        -302.7824666613439035        -302.7824666613439035
  **
  **
  **
  A surface hopping is not allowed
  **
  At state:   2


  &surface hopping information
-------------------------------------------------------

    Random number:             0.03191799
    Accumulated probability:   0.00000001
    state mult  level   probability 
    1     1     1       0.00000001
    2     1     2       0.00000000

    
-------------------------------------------------------

  
  &error iter 33        
-------------------------------------------------------
  Energy   MaxStDev:          0.0000    
  Gradient MaxStDev:          0.0000    
  Nac      MaxStDev:          0.0000    
  Soc      MaxStDev:          0.0000    
-------------------------------------------------------

  Iter:       34  Ekin =           0.0402642808978001 au T =   565.09 K dt =         20 CI:   2
  Root chosen for geometry opt   2

  Gnuplot:           0.0000002011423494           0.9999997988576439        -302.9409438897171754        -302.7888881173686286        -302.7888881173686286
  **
  **
  **
  A surface hopping is not allowed
  **
  At state:   2


  &surface hopping information
-------------------------------------------------------

    Random number:             0.16200083
    Accumulated probability:   0.00000003
    state mult  level   probability 
    1     1     1       0.00000003
    2     1     2       0.00000000

    
-------------------------------------------------------

  
  &error iter 34        
-------------------------------------------------------
  Energy   MaxStDev:          0.0000    
  Gradient MaxStDev:          0.0000    
  Nac      MaxStDev:          0.0000    
  Soc      MaxStDev:          0.0000    
-------------------------------------------------------

  Iter:       35  Ekin =           0.0468871706961221 au T =   658.04 K dt =         20 CI:   2
  Root chosen for geometry opt   2

  Gnuplot:           0.0000003438709603           0.9999996561290345        -302.9480137247628022        -302.7956892773280515        -302.7956892773280515
  **
  **
  **
  A surface hopping is not allowed
  **
  At state:   2


  &surface hopping information
-------------------------------------------------------

    Random number:             0.19600947
    Accumulated probability:   0.00000005
    state mult  level   probability 
    1     1     1       0.00000005
    2     1     2       0.00000000

    
-------------------------------------------------------

  
  &error iter 35        
-------------------------------------------------------
  Energy   MaxStDev:          0.0000    
  Gradient MaxStDev:          0.0000    
  Nac      MaxStDev:          0.0000    
  Soc      MaxStDev:          0.0000    
-------------------------------------------------------

  Iter:       36  Ekin =           0.0513071899233043 au T =   720.07 K dt =         20 CI:   2
  Root chosen for geometry opt   2

  Gnuplot:           0.0000004656008641           0.9999995343991372        -302.9531005382264084        -302.8002739448933198        -302.8002739448933198
  **
  **
  **
  A surface hopping is not allowed
  **
  At state:   2


  &surface hopping information
-------------------------------------------------------

    Random number:             0.81031483
    Accumulated probability:   0.00000006
    state mult  level   probability 
    1     1     1       0.00000006
    2     1     2       0.00000000

    
-------------------------------------------------------

  
  &error iter 36        
-------------------------------------------------------
  Energy   MaxStDev:          0.0000    
  Gradient MaxStDev:          0.0000    
  Nac      MaxStDev:          0.0000    
  Soc      MaxStDev:          0.0000    
-------------------------------------------------------

  Iter:       37  Ekin =           0.0513715897699535 au T =   720.97 K dt =         20 CI:   2
  Root chosen for geometry opt   2

  Gnuplot:           0.0000005408194521           0.9999994591805716        -302.9540381791386494        -302.8003742974520378        -302.8003742974520378
  **
  **
  **
  A surface hopping is not allowed
  **
  At state:   2


  &surface hopping information
-------------------------------------------------------

    Random number:             0.44046199
    Accumulated probability:   0.00000007
    state mult  level   probability 
    1     1     1       0.00000007
    2     1     2       0.00000000

    
-------------------------------------------------------

  
  &error iter 37        
-------------------------------------------------------
  Energy   MaxStDev:          0.0000    
  Gradient MaxStDev:          0.0000    
  Nac      MaxStDev:          0.0000    
  Soc      MaxStDev:          0.0000    
-------------------------------------------------------

  Iter:       38  Ekin =           0.0468565517288667 au T =   657.61 K dt =         20 CI:   2
  Root chosen for geometry opt   2

  Gnuplot:           0.0000005604562944           0.9999994395437284        -302.9503494125956991        -302.7957009671173978        -302.7957009671173978
  **
  **
  **
  A surface hopping is not allowed
  **
  At state:   2


  &surface hopping information
-------------------------------------------------------

    Random number:             0.84750229
    Accumulated probability:   0.00000006
    state mult  level   probability 
    1     1     1       0.00000006
    2     1     2       0.00000000

    
-------------------------------------------------------

  
  &error iter 38        
-------------------------------------------------------
  Energy   MaxStDev:          0.0000    
  Gradient MaxStDev:          0.0000    
  Nac      MaxStDev:          0.0000    
  Soc      MaxStDev:          0.0000    
-------------------------------------------------------

  Iter:       39  Ekin =           0.0401996733767980 au T =   564.18 K dt =         20 CI:   2
  Root chosen for geometry opt   2

  Gnuplot:           0.0000005083232453           0.9999994916767605        -302.9441538009133978        -302.7887727336069474        -302.7887727336069474
  **
  **
  **
  A surface hopping is not allowed
  **
  At state:   2


  &surface hopping information
-------------------------------------------------------

    Random number:             0.02734078
    Accumulated probability:   0.00000004
    state mult  level   probability 
    1     1     1       0.00000004
    2     1     2       0.00000000

    
-------------------------------------------------------

  
  &error iter 39        
-------------------------------------------------------
  Energy   MaxStDev:          0.0000    
  Gradient MaxStDev:          0.0000    
  Nac      MaxStDev:          0.0000    
  Soc      MaxStDev:          0.0000    
-------------------------------------------------------

  Iter:       40  Ekin =           0.0353365463705314 au T =   495.93 K dt =         20 CI:   2
  Root chosen for geometry opt   2

  Gnuplot:           0.0000004030006107           0.9999995969994018        -302.9395260733884356        -302.7837017445726815        -302.7837017445726815
  **
  **
  **
  A surface hopping is not allowed
  **
  At state:   2


  &surface hopping information
-------------------------------------------------------

    Random number:             0.52388066
    Accumulated probability:   0.00000003
    state mult  level   probability 
    1     1     1       0.00000003
    2     1     2       0.00000000

    
-------------------------------------------------------

  
  &error iter 40        
-------------------------------------------------------
  Energy   MaxStDev:          0.0000    
  Gradient MaxStDev:          0.0000    
  Nac      MaxStDev:          0.0000    
  Soc      MaxStDev:          0.0000    
-------------------------------------------------------

  Iter:       41  Ekin =           0.0352835397707486 au T =   495.19 K dt =         20 CI:   2
  Root chosen for geometry opt   2

  Gnuplot:           0.0000002964141976           0.9999997035858144        -302.9399133033259659        -302.7836342111512522        -302.7836342111512522
  **
  **
  **
  A surface hopping is not allowed
  **
  At state:   2


  &surface hopping information
-------------------------------------------------------

    Random number:             0.83538866
    Accumulated probability:   0.00000002
    state mult  level   probability 
    1     1     1       0.00000002
    2     1     2       0.00000000

    
-------------------------------------------------------

  
  &error iter 41        
-------------------------------------------------------
  Energy   MaxStDev:          0.0000    
  Gradient MaxStDev:          0.0000    
  Nac      MaxStDev:          0.0000    
  Soc      MaxStDev:          0.0000    
-------------------------------------------------------

  Iter:       42  Ekin =           0.0402492748244122 au T =   564.88 K dt =         20 CI:   2
  Root chosen for geometry opt   2

  Gnuplot:           0.0000002138441464           0.9999997861558541        -302.9456265393252465        -302.7887854128351819        -302.7887854128351819
  **
  **
  **
  A surface hopping is not allowed
  **
  At state:   2


  &surface hopping information
-------------------------------------------------------

    Random number:             0.83534312
    Accumulated probability:   0.00000002
    state mult  level   probability 
    1     1     1       0.00000002
    2     1     2       0.00000000

    
-------------------------------------------------------

  
  &error iter 42        
-------------------------------------------------------
  Energy   MaxStDev:          0.0000    
  Gradient MaxStDev:          0.0000    
  Nac      MaxStDev:          0.0000    
  Soc      MaxStDev:          0.0000    
-------------------------------------------------------

  Iter:       43  Ekin =           0.0475947108682612 au T =   667.97 K dt =         20 CI:   2
  Root chosen for geometry opt   2

  Gnuplot:           0.0000001545122739           0.9999998454877215        -302.9537671205877132        -302.7963734010836561        -302.7963734010836561
  **
  **
  **
  A surface hopping is not allowed
  **
  At state:   2


  &surface hopping information
-------------------------------------------------------

    Random number:             0.31050873
    Accumulated probability:   0.00000002
    state mult  level   probability 
    1     1     1       0.00000002
    2     1     2       0.00000000

    
-------------------------------------------------------

  
  &error iter 43        
-------------------------------------------------------
  Energy   MaxStDev:          0.0000    
  Gradient MaxStDev:          0.0000    
  Nac      MaxStDev:          0.0000    
  Soc      MaxStDev:          0.0000    
-------------------------------------------------------

  Iter:       44  Ekin =           0.0537471800724642 au T =   754.31 K dt =         20 CI:   2
  Root chosen for geometry opt   2

  Gnuplot:           0.0000001136659826           0.9999998863340167        -302.9606165434948934        -302.8026629678760173        -302.8026629678760173
  **
  **
  **
  A surface hopping is not allowed
  **
  At state:   2


  &surface hopping information
-------------------------------------------------------

    Random number:             0.36726555
    Accumulated probability:   0.00000001
    state mult  level   probability 
    1     1     1       0.00000001
    2     1     2       0.00000000

    
-------------------------------------------------------

  
  &error iter 44        
-------------------------------------------------------
  Energy   MaxStDev:          0.0000    
  Gradient MaxStDev:          0.0000    
  Nac      MaxStDev:          0.0000    
  Soc      MaxStDev:          0.0000    
-------------------------------------------------------

  Iter:       45  Ekin =           0.0564341776774543 au T =   792.02 K dt =         20 CI:   2
  Root chosen for geometry opt   2

  Gnuplot:           0.0000000749831394           0.9999999250168585        -302.9639968269950714        -302.8053374656149117        -302.8053374656149117
  **
  **
  **
  A surface hopping is not allowed
  **
  At state:   2


  &surface hopping information
-------------------------------------------------------

    Random number:             0.49291372
    Accumulated probability:   0.00000001
    state mult  level   probability 
    1     1     1       0.00000001
    2     1     2       0.00000000

    
-------------------------------------------------------

  
  &error iter 45        
-------------------------------------------------------
  Energy   MaxStDev:          0.0000    
  Gradient MaxStDev:          0.0000    
  Nac      MaxStDev:          0.0000    
  Soc      MaxStDev:          0.0000    
-------------------------------------------------------

  Iter:       46  Ekin =           0.0555087893437851 au T =   779.04 K dt =         20 CI:   2
  Root chosen for geometry opt   2

  Gnuplot:           0.0000000322745998           0.9999999677254010        -302.9637875396605295        -302.8043004992922533        -302.8043004992922533
  **
  **
  **
  A surface hopping is not allowed
  **
  At state:   2


  &surface hopping information
-------------------------------------------------------

    Random number:             0.87132633
    Accumulated probability:   0.00000000
    state mult  level   probability 
    1     1     1       0.00000000
    2     1     2       0.00000000

    
-------------------------------------------------------

  
  &error iter 46        
-------------------------------------------------------
  Energy   MaxStDev:          0.0000    
  Gradient MaxStDev:          0.0000    
  Nac      MaxStDev:          0.0000    
  Soc      MaxStDev:          0.0000    
-------------------------------------------------------

  Iter:       47  Ekin =           0.0523331387950513 au T =   734.47 K dt =         20 CI:   2
  Root chosen for geometry opt   2

  Gnuplot:           0.0000000048708078           0.9999999951291922        -302.9612364971848137        -302.8009996545217177        -302.8009996545217177
  **
  **
  **
  A surface hopping is not allowed
  **
  At state:   2


  &surface hopping information
-------------------------------------------------------

    Random number:             0.75112122
    Accumulated probability:   0.00000000
    state mult  level   probability 
    1     1     1       0.00000000
    2     1     2       0.00000000

    
-------------------------------------------------------

  
  &error iter 47        
-------------------------------------------------------
  Energy   MaxStDev:          0.0000    
  Gradient MaxStDev:          0.0000    
  Nac      MaxStDev:          0.0000    
  Soc      MaxStDev:          0.0000    
-------------------------------------------------------

  Iter:       48  Ekin =           0.0486043041728820 au T =   682.13 K dt =         20 CI:   2
  Root chosen for geometry opt   2

  Gnuplot:           0.0000000034836316           0.9999999965163684        -302.9579390717962610        -302.7971928766162932        -302.7971928766162932
  **
  **
  **
  A surface hopping is not allowed
  **
  At state:   2


  &surface hopping information
-------------------------------------------------------

    Random number:             0.06073962
    Accumulated probability:   0.00000000
    state mult  level   probability 
    1     1     1       0.00000000
    2     1     2       0.00000000

    
-------------------------------------------------------

  
  &error iter 48        
-------------------------------------------------------
  Energy   MaxStDev:          0.0000    
  Gradient MaxStDev:          0.0000    
  Nac      MaxStDev:          0.0000    
  Soc      MaxStDev:          0.0000    
-------------------------------------------------------

  Iter:       49  Ekin =           0.0454694671929636 au T =   638.14 K dt =         20 CI:   2
  Root chosen for geometry opt   2

  Gnuplot:           0.0000000282388778           0.9999999717611221        -302.9550626126422230        -302.7940378366533309        -302.7940378366533309
  **
  **
  **
  A surface hopping is not allowed
  **
  At state:   2


  &surface hopping information
-------------------------------------------------------

    Random number:             0.49868822
    Accumulated probability:   0.00000001
    state mult  level   probability 
    1     1     1       0.00000001
    2     1     2       0.00000000

    
-------------------------------------------------------

  
  &error iter 49        
-------------------------------------------------------
  Energy   MaxStDev:          0.0000    
  Gradient MaxStDev:          0.0000    
  Nac      MaxStDev:          0.0000    
  Soc      MaxStDev:          0.0000    
-------------------------------------------------------

  Iter:       50  Ekin =           0.0433218056019509 au T =   608.00 K dt =         20 CI:   2
  Root chosen for geometry opt   2

  Gnuplot:           0.0000000832292972           0.9999999167707045        -302.9531195975263245        -302.7918988579307324        -302.7918988579307324
  **
  **
  **
  A surface hopping is not allowed
  **
  At state:   2


  &surface hopping information
-------------------------------------------------------

    Random number:             0.16322003
    Accumulated probability:   0.00000001
    state mult  level   probability 
    1     1     1       0.00000001
    2     1     2       0.00000000

    
-------------------------------------------------------

  
  &error iter 50        
-------------------------------------------------------
  Energy   MaxStDev:          0.0000    
  Gradient MaxStDev:          0.0000    
  Nac      MaxStDev:          0.0000    
  Soc      MaxStDev:          0.0000    
-------------------------------------------------------

  Iter:       51  Ekin =           0.0421584477212775 au T =   591.67 K dt =         20 CI:   2
  Root chosen for geometry opt   2

  Gnuplot:           0.0000001691123357           0.9999998308876599        -302.9522246172379596        -302.7907333349865553        -302.7907333349865553
  **
  **
  **
  A surface hopping is not allowed
  **
  At state:   2


  &surface hopping information
-------------------------------------------------------

    Random number:             0.63735676
    Accumulated probability:   0.00000002
    state mult  level   probability 
    1     1     1       0.00000002
    2     1     2       0.00000000

    
-------------------------------------------------------

  
  &error iter 51        
-------------------------------------------------------
  Energy   MaxStDev:          0.0000    
  Gradient MaxStDev:          0.0000    
  Nac      MaxStDev:          0.0000    
  Soc      MaxStDev:          0.0000    
-------------------------------------------------------

  Iter:       52  Ekin =           0.0420990188983685 au T =   590.84 K dt =         20 CI:   2
  Root chosen for geometry opt   2

  Gnuplot:           0.0000002743190814           0.9999997256809081        -302.9525332162228324        -302.7906427890440568        -302.7906427890440568
  **
  **
  **
  A surface hopping is not allowed
  **
  At state:   2


  &surface hopping information
-------------------------------------------------------

    Random number:             0.82653016
    Accumulated probability:   0.00000004
    state mult  level   probability 
    1     1     1       0.00000004
    2     1     2       0.00000000

    
-------------------------------------------------------

  
  &error iter 52        
-------------------------------------------------------
  Energy   MaxStDev:          0.0000    
  Gradient MaxStDev:          0.0000    
  Nac      MaxStDev:          0.0000    
  Soc      MaxStDev:          0.0000    
-------------------------------------------------------

  Iter:       53  Ekin =           0.0436072427444574 au T =   612.00 K dt =         20 CI:   2
  Root chosen for geometry opt   2

  Gnuplot:           0.0000003849474293           0.9999996150525590        -302.9544584309840616        -302.7921142230479745        -302.7921142230479745
  **
  **
  **
  A surface hopping is not allowed
  **
  At state:   2


  &surface hopping information
-------------------------------------------------------

    Random number:             0.29489470
    Accumulated probability:   0.00000005
    state mult  level   probability 
    1     1     1       0.00000005
    2     1     2       0.00000000

    
-------------------------------------------------------

  
  &error iter 53        
-------------------------------------------------------
  Energy   MaxStDev:          0.0000    
  Gradient MaxStDev:          0.0000    
  Nac      MaxStDev:          0.0000    
  Soc      MaxStDev:          0.0000    
-------------------------------------------------------

  Iter:       54  Ekin =           0.0471530350981940 au T =   661.77 K dt =         20 CI:   2
  Root chosen for geometry opt   2

  Gnuplot:           0.0000005010746714           0.9999994989253196        -302.9583775221236692        -302.7956719996703328        -302.7956719996703328
  **
  **
  **
  A surface hopping is not allowed
  **
  At state:   2


  &surface hopping information
-------------------------------------------------------

    Random number:             0.39012530
    Accumulated probability:   0.00000007
    state mult  level   probability 
    1     1     1       0.00000007
    2     1     2       0.00000000

    
-------------------------------------------------------

  
  &error iter 54        
-------------------------------------------------------
  Energy   MaxStDev:          0.0000    
  Gradient MaxStDev:          0.0000    
  Nac      MaxStDev:          0.0000    
  Soc      MaxStDev:          0.0000    
-------------------------------------------------------

  Iter:       55  Ekin =           0.0524758071037889 au T =   736.47 K dt =         20 CI:   2
  Root chosen for geometry opt   2

  Gnuplot:           0.0000006363053017           0.9999993636947124        -302.9639251488297873        -302.8010994875687061        -302.8010994875687061
  **
  **
  **
  A surface hopping is not allowed
  **
  At state:   2


  &surface hopping information
-------------------------------------------------------

    Random number:             0.23563835
    Accumulated probability:   0.00000009
    state mult  level   probability 
    1     1     1       0.00000009
    2     1     2       0.00000000

    
-------------------------------------------------------

  
  &error iter 55        
-------------------------------------------------------
  Energy   MaxStDev:          0.0000    
  Gradient MaxStDev:          0.0000    
  Nac      MaxStDev:          0.0000    
  Soc      MaxStDev:          0.0000    
-------------------------------------------------------

  Iter:       56  Ekin =           0.0580449254565082 au T =   814.63 K dt =         20 CI:   2
  Root chosen for geometry opt   2

  Gnuplot:           0.0000008074634050           0.9999991925366203        -302.9694406534053996        -302.8068467011852363        -302.8068467011852363
  **
  **
  **
  A surface hopping is not allowed
  **
  At state:   2


  &surface hopping information
-------------------------------------------------------

    Random number:             0.38442123
    Accumulated probability:   0.00000013
    state mult  level   probability 
    1     1     1       0.00000013
    2     1     2       0.00000000

    
-------------------------------------------------------

  
  &error iter 56        
-------------------------------------------------------
  Energy   MaxStDev:          0.0000    
  Gradient MaxStDev:          0.0000    
  Nac      MaxStDev:          0.0000    
  Soc      MaxStDev:          0.0000    
-------------------------------------------------------

  Iter:       57  Ekin =           0.0613909136395365 au T =   861.59 K dt =         20 CI:   2
  Root chosen for geometry opt   2

  Gnuplot:           0.0000010196367181           0.9999989803633298        -302.9723210403201961        -302.8103531910502397        -302.8103531910502397
  **
  **
  **
  A surface hopping is not allowed
  **
  At state:   2


  &surface hopping information
-------------------------------------------------------

    Random number:             0.86853385
    Accumulated probability:   0.00000016
    state mult  level   probability 
    1     1     1       0.00000016
    2     1     2       0.00000000

    
-------------------------------------------------------

  
  &error iter 57        
-------------------------------------------------------
  Energy   MaxStDev:          0.0000    
  Gradient MaxStDev:          0.0000    
  Nac      MaxStDev:          0.0000    
  Soc      MaxStDev:          0.0000    
-------------------------------------------------------

  Iter:       58  Ekin =           0.0603704629608816 au T =   847.27 K dt =         20 CI:   2
  Root chosen for geometry opt   2

  Gnuplot:           0.0000012541637042           0.9999987458362511        -302.9704247801054180        -302.8093744478144913        -302.8093744478144913
  **
  **
  **
  A surface hopping is not allowed
  **
  At state:   2


  &surface hopping information
-------------------------------------------------------

    Random number:             0.26602650
    Accumulated probability:   0.00000019
    state mult  level   probability 
    1     1     1       0.00000019
    2     1     2       0.00000000

    
-------------------------------------------------------

  
  &error iter 58        
-------------------------------------------------------
  Energy   MaxStDev:          0.0000    
  Gradient MaxStDev:          0.0000    
  Nac      MaxStDev:          0.0000    
  Soc      MaxStDev:          0.0000    
-------------------------------------------------------

  Iter:       59  Ekin =           0.0546573509493138 au T =   767.09 K dt =         20 CI:   2
  Root chosen for geometry opt   2

  Gnuplot:           0.0000015238577365           0.9999984761423093        -302.9635937303327182        -302.8035205135888077        -302.8035205135888077
  **
  **
  **
  A surface hopping is not allowed
  **
  At state:   2


  &surface hopping information
-------------------------------------------------------

    Random number:             0.39126256
    Accumulated probability:   0.00000021
    state mult  level   probability 
    1     1     1       0.00000021
    2     1     2       0.00000000

    
-------------------------------------------------------

  
  &error iter 59        
-------------------------------------------------------
  Energy   MaxStDev:          0.0000    
  Gradient MaxStDev:          0.0000    
  Nac      MaxStDev:          0.0000    
  Soc      MaxStDev:          0.0000    
-------------------------------------------------------

  Iter:       60  Ekin =           0.0465236484779626 au T =   652.93 K dt =         20 CI:   2
  Root chosen for geometry opt   2

  Gnuplot:           0.0000018530257164           0.9999981469742352        -302.9543001542972434        -302.7951155747269922        -302.7951155747269922
  **
  **
  **
  A surface hopping is not allowed
  **
  At state:   2


  &surface hopping information
-------------------------------------------------------

    Random number:             0.86737633
    Accumulated probability:   0.00000022
    state mult  level   probability 
    1     1     1       0.00000022
    2     1     2       0.00000000

    
-------------------------------------------------------

  
  &error iter 60        
-------------------------------------------------------
  Energy   MaxStDev:          0.0000    
  Gradient MaxStDev:          0.0000    
  Nac      MaxStDev:          0.0000    
  Soc      MaxStDev:          0.0000    
-------------------------------------------------------

  Iter:       61  Ekin =           0.0398700039782209 au T =   559.55 K dt =         20 CI:   2
  Root chosen for geometry opt   2

  Gnuplot:           0.0000022062969011           0.9999977937031872        -302.9467021166986456        -302.7882598103722103        -302.7882598103722103
  **
  **
  **
  A surface hopping is not allowed
  **
  At state:   2


  &surface hopping information
-------------------------------------------------------

    Random number:             0.87273532
    Accumulated probability:   0.00000024
    state mult  level   probability 
    1     1     1       0.00000024
    2     1     2       0.00000000

    
-------------------------------------------------------

  
  &error iter 61        
-------------------------------------------------------
  Energy   MaxStDev:          0.0000    
  Gradient MaxStDev:          0.0000    
  Nac      MaxStDev:          0.0000    
  Soc      MaxStDev:          0.0000    
-------------------------------------------------------

  Iter:       62  Ekin =           0.0375864402173508 au T =   527.51 K dt =         20 CI:   2
  Root chosen for geometry opt   2

  Gnuplot:           0.0000025171344692           0.9999974828656377        -302.9439410838415370        -302.7859916899961945        -302.7859916899961945
  **
  **
  **
  A surface hopping is not allowed
  **
  At state:   2


  &surface hopping information
-------------------------------------------------------

    Random number:             0.11751797
    Accumulated probability:   0.00000026
    state mult  level   probability 
    1     1     1       0.00000026
    2     1     2       0.00000000

    
-------------------------------------------------------

  
  &error iter 62        
-------------------------------------------------------
  Energy   MaxStDev:          0.0000    
  Gradient MaxStDev:          0.0000    
  Nac      MaxStDev:          0.0000    
  Soc      MaxStDev:          0.0000    
-------------------------------------------------------

  Iter:       63  Ekin =           0.0395561709926723 au T =   555.15 K dt =         20 CI:   2
  Root chosen for geometry opt   2

  Gnuplot:           0.0000027058937674           0.9999972941061515        -302.9459007585248287        -302.7881436046735644        -302.7881436046735644
  **
  **
  **
  A surface hopping is not allowed
  **
  At state:   2


  &surface hopping information
-------------------------------------------------------

    Random number:             0.19332297
    Accumulated probability:   0.00000029
    state mult  level   probability 
    1     1     1       0.00000029
    2     1     2       0.00000000

    
-------------------------------------------------------

  
  &error iter 63        
-------------------------------------------------------
  Energy   MaxStDev:          0.0000    
  Gradient MaxStDev:          0.0000    
  Nac      MaxStDev:          0.0000    
  Soc      MaxStDev:          0.0000    
-------------------------------------------------------

  Iter:       64  Ekin =           0.0432486203453508 au T =   606.97 K dt =         20 CI:   2
  Root chosen for geometry opt   2

  Gnuplot:           0.0000027130893872           0.9999972869106841        -302.9498452027108897        -302.7920089706906310        -302.7920089706906310
  **
  **
  **
  A surface hopping is not allowed
  **
  At state:   2


  &surface hopping information
-------------------------------------------------------

    Random number:             0.74706012
    Accumulated probability:   0.00000030
    state mult  level   probability 
    1     1     1       0.00000030
    2     1     2       0.00000000

    
-------------------------------------------------------

  
  &error iter 64        
-------------------------------------------------------
  Energy   MaxStDev:          0.0000    
  Gradient MaxStDev:          0.0000    
  Nac      MaxStDev:          0.0000    
  Soc      MaxStDev:          0.0000    
-------------------------------------------------------

  Iter:       65  Ekin =           0.0459822416448933 au T =   645.34 K dt =         20 CI:   2
  Root chosen for geometry opt   2

  Gnuplot:           0.0000026206301552           0.9999973793699155        -302.9529131468502214        -302.7948085934613118        -302.7948085934613118
  **
  **
  **
  A surface hopping is not allowed
  **
  At state:   2


  &surface hopping information
-------------------------------------------------------

    Random number:             0.24655974
    Accumulated probability:   0.00000030
    state mult  level   probability 
    1     1     1       0.00000030
    2     1     2       0.00000000

    
-------------------------------------------------------

  
  &error iter 65        
-------------------------------------------------------
  Energy   MaxStDev:          0.0000    
  Gradient MaxStDev:          0.0000    
  Nac      MaxStDev:          0.0000    
  Soc      MaxStDev:          0.0000    
-------------------------------------------------------

  Iter:       66  Ekin =           0.0464482893526153 au T =   651.88 K dt =         20 CI:   2
  Root chosen for geometry opt   2

  Gnuplot:           0.0000025899823678           0.9999974100176132        -302.9537007443723837        -302.7952514743486745        -302.7952514743486745
  **
  **
  **
  A surface hopping is not allowed
  **
  At state:   2


  &surface hopping information
-------------------------------------------------------

    Random number:             0.21946178
    Accumulated probability:   0.00000030
    state mult  level   probability 
    1     1     1       0.00000030
    2     1     2       0.00000000

    
-------------------------------------------------------

  
  &error iter 66        
-------------------------------------------------------
  Energy   MaxStDev:          0.0000    
  Gradient MaxStDev:          0.0000    
  Nac      MaxStDev:          0.0000    
  Soc      MaxStDev:          0.0000    
-------------------------------------------------------

  Iter:       67  Ekin =           0.0447537067838606 au T =   628.09 K dt =         20 CI:   2
  Root chosen for geometry opt   2

  Gnuplot:           0.0000026592486885           0.9999973407514062        -302.9522664728251016        -302.7934838817716354        -302.7934838817716354
  **
  **
  **
  A surface hopping is not allowed
  **
  At state:   2


  &surface hopping information
-------------------------------------------------------

    Random number:             0.99920124
    Accumulated probability:   0.00000030
    state mult  level   probability 
    1     1     1       0.00000030
    2     1     2       0.00000000

    
-------------------------------------------------------

  
  &error iter 67        
-------------------------------------------------------
  Energy   MaxStDev:          0.0000    
  Gradient MaxStDev:          0.0000    
  Nac      MaxStDev:          0.0000    
  Soc      MaxStDev:          0.0000    
-------------------------------------------------------

  Iter:       68  Ekin =           0.0418104833246792 au T =   586.79 K dt =         20 CI:   2
  Root chosen for geometry opt   2

  Gnuplot:           0.0000026780078952           0.9999973219921685        -302.9495275313435059        -302.7904678694562222        -302.7904678694562222
  **
  **
  **
  A surface hopping is not allowed
  **
  At state:   2


  &surface hopping information
-------------------------------------------------------

    Random number:             0.73272729
    Accumulated probability:   0.00000028
    state mult  level   probability 
    1     1     1       0.00000028
    2     1     2       0.00000000

    
-------------------------------------------------------

  
  &error iter 68        
-------------------------------------------------------
  Energy   MaxStDev:          0.0000    
  Gradient MaxStDev:          0.0000    
  Nac      MaxStDev:          0.0000    
  Soc      MaxStDev:          0.0000    
-------------------------------------------------------

  Iter:       69  Ekin =           0.0385989432115837 au T =   541.71 K dt =         20 CI:   2
  Root chosen for geometry opt   2

  Gnuplot:           0.0000024873437392           0.9999975126563641        -302.9464970406384055        -302.7872200057548184        -302.7872200057548184
  **
  **
  **
  A surface hopping is not allowed
  **
  At state:   2


  &surface hopping information
-------------------------------------------------------

    Random number:             0.93929583
    Accumulated probability:   0.00000023
    state mult  level   probability 
    1     1     1       0.00000023
    2     1     2       0.00000000

    
-------------------------------------------------------

  
  &error iter 69        
-------------------------------------------------------
  Energy   MaxStDev:          0.0000    
  Gradient MaxStDev:          0.0000    
  Nac      MaxStDev:          0.0000    
  Soc      MaxStDev:          0.0000    
-------------------------------------------------------

  Iter:       70  Ekin =           0.0357117446581818 au T =   501.19 K dt =         20 CI:   2
  Root chosen for geometry opt   2

  Gnuplot:           0.0000021223481857           0.9999978776518219        -302.9437692482477473        -302.7843193387888050        -302.7843193387888050
  **
  **
  **
  A surface hopping is not allowed
  **
  At state:   2


  &surface hopping information
-------------------------------------------------------

    Random number:             0.88738877
    Accumulated probability:   0.00000017
    state mult  level   probability 
    1     1     1       0.00000017
    2     1     2       0.00000000

    
-------------------------------------------------------

  
  &error iter 70        
-------------------------------------------------------
  Energy   MaxStDev:          0.0000    
  Gradient MaxStDev:          0.0000    
  Nac      MaxStDev:          0.0000    
  Soc      MaxStDev:          0.0000    
-------------------------------------------------------

  Iter:       71  Ekin =           0.0334851832754924 au T =   469.95 K dt =         20 CI:   2
  Root chosen for geometry opt   2

  Gnuplot:           0.0000017183614396           0.9999982816385682        -302.9416198238350830        -302.7820679500736105        -302.7820679500736105
  **
  **
  **
  A surface hopping is not allowed
  **
  At state:   2


  &surface hopping information
-------------------------------------------------------

    Random number:             0.21293491
    Accumulated probability:   0.00000013
    state mult  level   probability 
    1     1     1       0.00000013
    2     1     2       0.00000000

    
-------------------------------------------------------

  
  &error iter 71        
-------------------------------------------------------
  Energy   MaxStDev:          0.0000    
  Gradient MaxStDev:          0.0000    
  Nac      MaxStDev:          0.0000    
  Soc      MaxStDev:          0.0000    
-------------------------------------------------------

  Iter:       72  Ekin =           0.0324245060061243 au T =   455.06 K dt =         20 CI:   2
  Root chosen for geometry opt   2

  Gnuplot:           0.0000013449183477           0.9999986550816402        -302.9404909428458268        -302.7809534721142199        -302.7809534721142199
  **
  **
  **
  A surface hopping is not allowed
  **
  At state:   2


  &surface hopping information
-------------------------------------------------------

    Random number:             0.67282635
    Accumulated probability:   0.00000010
    state mult  level   probability 
    1     1     1       0.00000010
    2     1     2       0.00000000

    
[...]
  **
  **
  **
  A surface hopping is not allowed
  **
  At state:   1


  &surface hopping information
-------------------------------------------------------

    Random number:             0.64501590
    Accumulated probability:   0.00000006
    state mult  level   probability 
    1     1     1       0.00000000
    2     1     2       0.00000006

    
-------------------------------------------------------

  
  &error iter 1981      
-------------------------------------------------------
  Energy   MaxStDev:          0.0000    
  Gradient MaxStDev:          0.0000    
  Nac      MaxStDev:          0.0000    
  Soc      MaxStDev:          0.0000    
-------------------------------------------------------

  Iter:     1982  Ekin =           0.1869016431187583 au T =  2623.06 K dt =         20 CI:   2
  Root chosen for geometry opt   1

  Gnuplot:           0.9999999524356156           0.0000000475643831        -302.9351971021156373        -302.7425242380185750        -302.9351971021156373
  **
  **
  **
  A surface hopping is not allowed
  **
  At state:   1


  &surface hopping information
-------------------------------------------------------

    Random number:             0.45798120
    Accumulated probability:   0.00000001
    state mult  level   probability 
    1     1     1       0.00000000
    2     1     2       0.00000001

    
-------------------------------------------------------

  
  &error iter 1982      
-------------------------------------------------------
  Energy   MaxStDev:          0.0000    
  Gradient MaxStDev:          0.0000    
  Nac      MaxStDev:          0.0000    
  Soc      MaxStDev:          0.0000    
-------------------------------------------------------

  Iter:     1983  Ekin =           0.1853702617880424 au T =  2601.57 K dt =         20 CI:   2
  Root chosen for geometry opt   1

  Gnuplot:           0.9999999975954206           0.0000000024045794        -302.9336388603265391        -302.7372668984227744        -302.9336388603265391
  **
  **
  **
  A surface hopping is not allowed
  **
  At state:   1


  &surface hopping information
-------------------------------------------------------

    Random number:             0.44864148
    Accumulated probability:   0.00000000
    state mult  level   probability 
    1     1     1       0.00000000
    2     1     2       0.00000000

    
-------------------------------------------------------

  
  &error iter 1983      
-------------------------------------------------------
  Energy   MaxStDev:          0.0000    
  Gradient MaxStDev:          0.0000    
  Nac      MaxStDev:          0.0000    
  Soc      MaxStDev:          0.0000    
-------------------------------------------------------

  Iter:     1984  Ekin =           0.1848345543876698 au T =  2594.05 K dt =         20 CI:   2
  Root chosen for geometry opt   1

  Gnuplot:           0.9999999979573038           0.0000000020426963        -302.9330696447393620        -302.7342273500254350        -302.9330696447393620
  **
  **
  **
  A surface hopping is not allowed
  **
  At state:   1


  &surface hopping information
-------------------------------------------------------

    Random number:             0.06647816
    Accumulated probability:   0.00000000
    state mult  level   probability 
    1     1     1       0.00000000
    2     1     2       0.00000000

    
-------------------------------------------------------

  
  &error iter 1984      
-------------------------------------------------------
  Energy   MaxStDev:          0.0000    
  Gradient MaxStDev:          0.0000    
  Nac      MaxStDev:          0.0000    
  Soc      MaxStDev:          0.0000    
-------------------------------------------------------

  Iter:     1985  Ekin =           0.1856975014574713 au T =  2606.16 K dt =         20 CI:   2
  Root chosen for geometry opt   1

  Gnuplot:           0.9999998513135182           0.0000001486864778        -302.9339520409287729        -302.7336738296546628        -302.9339520409287729
  **
  **
  **
  A surface hopping is not allowed
  **
  At state:   1


  &surface hopping information
-------------------------------------------------------

    Random number:             0.79867232
    Accumulated probability:   0.00000007
    state mult  level   probability 
    1     1     1       0.00000000
    2     1     2       0.00000007

    
-------------------------------------------------------

  
  &error iter 1985      
-------------------------------------------------------
  Energy   MaxStDev:          0.0000    
  Gradient MaxStDev:          0.0000    
  Nac      MaxStDev:          0.0000    
  Soc      MaxStDev:          0.0000    
-------------------------------------------------------

  Iter:     1986  Ekin =           0.1876376843277835 au T =  2633.39 K dt =         20 CI:   2
  Root chosen for geometry opt   1

  Gnuplot:           0.9999987073254033           0.0000012926746347        -302.9359752086928097        -302.7347149592220603        -302.9359752086928097
  **
  **
  **
  A surface hopping is not allowed
  **
  At state:   1


  &surface hopping information
-------------------------------------------------------

    Random number:             0.98079145
    Accumulated probability:   0.00000058
    state mult  level   probability 
    1     1     1       0.00000000
    2     1     2       0.00000058

    
-------------------------------------------------------

  
  &error iter 1986      
-------------------------------------------------------
  Energy   MaxStDev:          0.0000    
  Gradient MaxStDev:          0.0000    
  Nac      MaxStDev:          0.0000    
  Soc      MaxStDev:          0.0000    
-------------------------------------------------------

  Iter:     1987  Ekin =           0.1895006242561201 au T =  2659.54 K dt =         20 CI:   2
  Root chosen for geometry opt   1

  Gnuplot:           0.9999956222441142           0.0000043777560435        -302.9379236937039650        -302.7358558368343893        -302.9379236937039650
  **
  **
  **
  A surface hopping is not allowed
  **
  At state:   1


  &surface hopping information
-------------------------------------------------------

    Random number:             0.32165313
    Accumulated probability:   0.00000185
    state mult  level   probability 
    1     1     1       0.00000000
    2     1     2       0.00000185

    
-------------------------------------------------------

  
  &error iter 1987      
-------------------------------------------------------
  Energy   MaxStDev:          0.0000    
  Gradient MaxStDev:          0.0000    
  Nac      MaxStDev:          0.0000    
  Soc      MaxStDev:          0.0000    
-------------------------------------------------------

  Iter:     1988  Ekin =           0.1900641280746335 au T =  2667.45 K dt =         20 CI:   2
  Root chosen for geometry opt   1

  Gnuplot:           0.9999920579439276           0.0000079420564658        -302.9385130664078929        -302.7360124528781284        -302.9385130664078929
  **
  **
  **
  A surface hopping is not allowed
  **
  At state:   1


  &surface hopping information
-------------------------------------------------------

    Random number:             0.78811175
    Accumulated probability:   0.00000314
    state mult  level   probability 
    1     1     1       0.00000000
    2     1     2       0.00000314

    
-------------------------------------------------------

  
  &error iter 1988      
-------------------------------------------------------
  Energy   MaxStDev:          0.0000    
  Gradient MaxStDev:          0.0000    
  Nac      MaxStDev:          0.0000    
  Soc      MaxStDev:          0.0000    
-------------------------------------------------------

  Iter:     1989  Ekin =           0.1888603661740236 au T =  2650.55 K dt =         20 CI:   2
  Root chosen for geometry opt   1

  Gnuplot:           0.9999910948781690           0.0000089051221694        -302.9372698702072739        -302.7349797692847346        -302.9372698702072739
  **
  **
  **
  A surface hopping is not allowed
  **
  At state:   1


  &surface hopping information
-------------------------------------------------------

    Random number:             0.90338302
    Accumulated probability:   0.00000324
    state mult  level   probability 
    1     1     1       0.00000000
    2     1     2       0.00000324

    
-------------------------------------------------------

  
  &error iter 1989      
-------------------------------------------------------
  Energy   MaxStDev:          0.0000    
  Gradient MaxStDev:          0.0000    
  Nac      MaxStDev:          0.0000    
  Soc      MaxStDev:          0.0000    
-------------------------------------------------------

  Iter:     1990  Ekin =           0.1862896573968837 au T =  2614.47 K dt =         20 CI:   2
  Root chosen for geometry opt   1

  Gnuplot:           0.9999932047549009           0.0000067952449011        -302.9346376192348771        -302.7330686910529494        -302.9346376192348771
  **
  **
  **
  A surface hopping is not allowed
  **
  At state:   1


  &surface hopping information
-------------------------------------------------------

    Random number:             0.69175953
    Accumulated probability:   0.00000226
    state mult  level   probability 
    1     1     1       0.00000000
    2     1     2       0.00000226

    
-------------------------------------------------------

  
  &error iter 1990      
-------------------------------------------------------
  Energy   MaxStDev:          0.0000    
  Gradient MaxStDev:          0.0000    
  Nac      MaxStDev:          0.0000    
  Soc      MaxStDev:          0.0000    
-------------------------------------------------------

  Iter:     1991  Ekin =           0.1830757097077845 au T =  2569.37 K dt =         20 CI:   2
  Root chosen for geometry opt   1

  Gnuplot:           0.9999959015485729           0.0000040984512444        -302.9313893197357856        -302.7305460338957914        -302.9313893197357856
  **
  **
  **
  A surface hopping is not allowed
  **
  At state:   1


  &surface hopping information
-------------------------------------------------------

    Random number:             0.03988383
    Accumulated probability:   0.00000128
    state mult  level   probability 
    1     1     1       0.00000000
    2     1     2       0.00000128

    
-------------------------------------------------------

  
  &error iter 1991      
-------------------------------------------------------
  Energy   MaxStDev:          0.0000    
  Gradient MaxStDev:          0.0000    
  Nac      MaxStDev:          0.0000    
  Soc      MaxStDev:          0.0000    
-------------------------------------------------------

  Iter:     1992  Ekin =           0.1796835793701249 au T =  2521.76 K dt =         20 CI:   2
  Root chosen for geometry opt   1

  Gnuplot:           0.9999975536002239           0.0000024463996697        -302.9279928145502936        -302.7276648805433297        -302.9279928145502936
  **
  **
  **
  A surface hopping is not allowed
  **
  At state:   1


  &surface hopping information
-------------------------------------------------------

    Random number:             0.53074545
    Accumulated probability:   0.00000076
    state mult  level   probability 
    1     1     1       0.00000000
    2     1     2       0.00000076

    
-------------------------------------------------------

  
  &error iter 1992      
-------------------------------------------------------
  Energy   MaxStDev:          0.0000    
  Gradient MaxStDev:          0.0000    
  Nac      MaxStDev:          0.0000    
  Soc      MaxStDev:          0.0000    
-------------------------------------------------------

  Iter:     1993  Ekin =           0.1762297514179283 au T =  2473.29 K dt =         20 CI:   2
  Root chosen for geometry opt   1

  Gnuplot:           0.9999984380440310           0.0000015619559356        -302.9245410258143920        -302.7248188739408192        -302.9245410258143920
  **
  **
  **
  A surface hopping is not allowed
  **
  At state:   1


  &surface hopping information
-------------------------------------------------------

    Random number:             0.43270925
    Accumulated probability:   0.00000049
    state mult  level   probability 
    1     1     1       0.00000000
    2     1     2       0.00000049

    
-------------------------------------------------------

  
  &error iter 1993      
-------------------------------------------------------
  Energy   MaxStDev:          0.0000    
  Gradient MaxStDev:          0.0000    
  Nac      MaxStDev:          0.0000    
  Soc      MaxStDev:          0.0000    
-------------------------------------------------------

  Iter:     1994  Ekin =           0.1727452335248698 au T =  2424.38 K dt =         20 CI:   2
  Root chosen for geometry opt   1

  Gnuplot:           0.9999990725044086           0.0000009274956148        -302.9210471585819846        -302.7223337573792605        -302.9210471585819846
  **
  **
  **
  A surface hopping is not allowed
  **
  At state:   1


  &surface hopping information
-------------------------------------------------------

    Random number:             0.41259766
    Accumulated probability:   0.00000028
    state mult  level   probability 
    1     1     1       0.00000000
    2     1     2       0.00000028

    
-------------------------------------------------------

  
  &error iter 1994      
-------------------------------------------------------
  Energy   MaxStDev:          0.0000    
  Gradient MaxStDev:          0.0000    
  Nac      MaxStDev:          0.0000    
  Soc      MaxStDev:          0.0000    
-------------------------------------------------------

  Iter:     1995  Ekin =           0.1694066063143111 au T =  2377.53 K dt =         20 CI:   2
  Root chosen for geometry opt   1

  Gnuplot:           0.9999995719133494           0.0000004280866564        -302.9176839559174255        -302.7203542514690184        -302.9176839559174255
  **
  **
  **
  A surface hopping is not allowed
  **
  At state:   1


  &surface hopping information
-------------------------------------------------------

    Random number:             0.93951470
    Accumulated probability:   0.00000011
    state mult  level   probability 
    1     1     1       0.00000000
    2     1     2       0.00000011

    
-------------------------------------------------------

  
  &error iter 1995      
-------------------------------------------------------
  Energy   MaxStDev:          0.0000    
  Gradient MaxStDev:          0.0000    
  Nac      MaxStDev:          0.0000    
  Soc      MaxStDev:          0.0000    
-------------------------------------------------------

  Iter:     1996  Ekin =           0.1665954359123995 au T =  2338.08 K dt =         20 CI:   2
  Root chosen for geometry opt   1

  Gnuplot:           0.9999998923555253           0.0000001076444749        -302.9148382241656918        -302.7190045867918684        -302.9148382241656918
  **
  **
  **
  A surface hopping is not allowed
  **
  At state:   1


  &surface hopping information
-------------------------------------------------------

    Random number:             0.79703617
    Accumulated probability:   0.00000002
    state mult  level   probability 
    1     1     1       0.00000000
    2     1     2       0.00000002

    
-------------------------------------------------------

  
  &error iter 1996      
-------------------------------------------------------
  Energy   MaxStDev:          0.0000    
  Gradient MaxStDev:          0.0000    
  Nac      MaxStDev:          0.0000    
  Soc      MaxStDev:          0.0000    
-------------------------------------------------------

  Iter:     1997  Ekin =           0.1648402614597443 au T =  2313.44 K dt =         20 CI:   2
  Root chosen for geometry opt   1

  Gnuplot:           0.9999999956671166           0.0000000043328834        -302.9130448964618267        -302.7185537673484532        -302.9130448964618267
  **
  **
  **
  A surface hopping is not allowed
  **
  At state:   1


  &surface hopping information
-------------------------------------------------------

    Random number:             0.37998524
    Accumulated probability:   0.00000000
    state mult  level   probability 
    1     1     1       0.00000000
    2     1     2       0.00000000

    
-------------------------------------------------------

  
  &error iter 1997      
-------------------------------------------------------
  Energy   MaxStDev:          0.0000    
  Gradient MaxStDev:          0.0000    
  Nac      MaxStDev:          0.0000    
  Soc      MaxStDev:          0.0000    
-------------------------------------------------------

  Iter:     1998  Ekin =           0.1647255395421493 au T =  2311.83 K dt =         20 CI:   2
  Root chosen for geometry opt   1

  Gnuplot:           0.9999998822032481           0.0000001177967549        -302.9128961500458672        -302.7195554605400503        -302.9128961500458672
  **
  **
  **
  A surface hopping is not allowed
  **
  At state:   1


  &surface hopping information
-------------------------------------------------------

    Random number:             0.30053672
    Accumulated probability:   0.00000005
    state mult  level   probability 
    1     1     1       0.00000000
    2     1     2       0.00000005

    
-------------------------------------------------------

  
  &error iter 1998      
-------------------------------------------------------
  Energy   MaxStDev:          0.0000    
  Gradient MaxStDev:          0.0000    
  Nac      MaxStDev:          0.0000    
  Soc      MaxStDev:          0.0000    
-------------------------------------------------------

  Iter:     1999  Ekin =           0.1667598398056166 au T =  2340.38 K dt =         20 CI:   2
  Root chosen for geometry opt   1

  Gnuplot:           0.9999997117133148           0.0000002882866890        -302.9149156920071846        -302.7228797116511601        -302.9149156920071846
  **
  **
  **
  A surface hopping is not allowed
  **
  At state:   1


  &surface hopping information
-------------------------------------------------------

    Random number:             0.23205863
    Accumulated probability:   0.00000010
    state mult  level   probability 
    1     1     1       0.00000000
    2     1     2       0.00000010

    
-------------------------------------------------------

  
  &error iter 1999      
-------------------------------------------------------
  Energy   MaxStDev:          0.0000    
  Gradient MaxStDev:          0.0000    
  Nac      MaxStDev:          0.0000    
  Soc      MaxStDev:          0.0000    
-------------------------------------------------------

  Iter:     2000  Ekin =           0.1711392024765709 au T =  2401.84 K dt =         20 CI:   2
  Root chosen for geometry opt   1

  Gnuplot:           0.9999997067905042           0.0000002932094905        -302.9193204474012759        -302.7292117407146179        -302.9193204474012759
  **
  **
  **
  A surface hopping is not allowed
  **
  At state:   1


  &surface hopping information
-------------------------------------------------------

    Random number:             0.02354602
    Accumulated probability:   0.00000009
    state mult  level   probability 
    1     1     1       0.00000000
    2     1     2       0.00000009

    
-------------------------------------------------------

  
  &error iter 2000      
-------------------------------------------------------
  Energy   MaxStDev:          0.0000    
  Gradient MaxStDev:          0.0000    
  Nac      MaxStDev:          0.0000    
  Soc      MaxStDev:          0.0000    
-------------------------------------------------------


Nonadiabatic Molecular Dynamics End:  2026-02-25 10:54:16 Total:     0 days     0 hours     7 minutes    19 seconds
