Nonadiabatic Molecular Dynamics Start:  2026-02-25 10:46:56


  -------------------------------------------------------------------
                              /\
   |\    /|                  /++\
   ||\  /||                 /++++\
   || \/ || ||             /++++++\
   ||    || ||            /PyRAI2MD\
   ||    || ||           /++++++++++\                    __
            ||          /++++++++++++\    |\ |  /\  |\/| | \
            ||__ __    *==============*   | \| /--\ |  | |_/

                          Python Rapid
                     Artificial Intelligence
                  Ab Initio Molecular Dynamics



                      Author @Jingbai Li
                      
                      
    2022 – present   Hoffmann Institute of Advanced Materials
                     Shenzhen Polytechnic, Shenzhen, China    
                                
    2019 – 2022      Department of Chemistry and Chemical Biology
                     Northeastern University, Boston, USA

                          version:   2.5.1

  With contributions from (in alphabetic order):
    Jingbai Li     - Fewest switches surface hopping
                     Zhu-Nakamura surface hopping
                     Velocity Verlet
                     OpenMolcas interface
                     OpenMolcas/Tinker interface
                     BAGEL interface
                     ORCA interface
                     OpenQP interface
                     GFN-xTB interface
                     Adaptive sampling
                     Grid search
                     Multilayer ONIOM (QM:QM' and QM:QM':MM)
                     Periodic boundary condition
                     Wall potential
                     QC/ML hybrid NAMD
                     Excited-State Neural Network Potentials (ESNNP)

    Patrick Reiser - Fully connected neural networks (pyNNsMD)
                     SchNet (pyNNsMD)

  Special acknowledgement to:
    Steven A. Lopez            - Project co-founder
    Pascal Friederich          - Project co-founder




  &control
-------------------------------------------------------
  Title:                      dbh-5     
  NPROCS for ML:              1         
  NPROCS for QC:              1         
  NPROCS for Multiscale:      1          
  Seed:                       1         
  Job: 	                      md        
  QM:          	       	      nequip    
  Ab initio:                  molcas    
-------------------------------------------------------

        
  &molecule
-------------------------------------------------------
  States:                     [2]       
  Spin:                       [0]       
  Interstates:                [[1, 2]]  
  QMMM keyfile:               None      
  QMMM xyzfile:               Input     
  High level region:          []         ...
  Middel level region:        []         ...
  Boundary:                   []         ...
  Embedding charges:          False     
  Reading charge:             False     
  Frozen atoms:               []        
  Constrained atoms:          []        
  Restrained bonds:           []        
  Restrained angles:          []        
  Restrained dihedrals:       []        
  Restrained bond value:      []        
  Restrained angle value:     []        
  Restrained dihedral value:  []        
  Bond potential scale:       10.0      
  Angle potential scale:      0.005     
  Dihedral potential scale:   1e-06     
  External potential shape:   ['ellipsoid']
  External potential radius:  []        
  External potential factor:  [40]      
  External potential scale:   [1.0]       
  Compress potential volume:  []        
  Potential center:           []        
  Potential center type:      xyz       
  Constrained groups          []        
  Track geometry type:        None      
  Track indices:              []        
  Track threshold:            []        
  Track stop task:            0         
  Lattice vectors:            []        
  Lattice constant:           []        
  Periodic boundary condition []        
-------------------------------------------------------

        
  &initial condition
-------------------------------------------------------
  Generate initial condition: 0         
  Number:                     5000      
  Method:                     wigner     
  Format:                     molden    
-------------------------------------------------------

        
  &md
-------------------------------------------------------
  Initial state:              2         
  Initialize random velocity  0         
  Temperature (K):            300       
  Step:                       2000      
  Dt (au):                    20.67     
  Only active state grad      0         
  Surface hopping:            fssh      
  NAC type:                   nac       
  Phase correction            1         
  Population reset            0         
  Substep:                    20        
  Integrate probability       0         
  Decoherence:                0.1       
  Adjust velocity:            2         
  Reflect velocity:           1         
  Maxhop:                     10        
  IC hopping gap threshold    0.5       
  ISC hopping gap threshold   0.5       
  Thermodynamic:              off       
  Thermodynamic delay:        200       
  Print level:                0         
  Direct output:              2000      
  Buffer output:              0         
  Record MD data:             1         
  Record MD steps:            0         
  Checkpoint steps:           1          
  Restart function:           0         
  Additional steps:           0         
-------------------------------------------------------

        
  &md velocity control
-------------------------------------------------------
  Excess kinetic energy       0         
  Scale kinetic energy        1         
  Target kinetic energy       0         
  Gradient descent path       0         
  Reset velocity:             0         
  Reset step:                 0         
-------------------------------------------------------

        
  &nequip
-------------------------------------------------------
  Train data:                 None      
  Prediction data:            None      
  Train mode:                 training  
  Silent mode:                1         
  Data splits:                10        
  NN EG type:                 1         
  NN NAC type:                0         
  NN SOC type:                0         
  Multiscale:                 []        
  Shuffle data:               False     
  EG unit:                    si        
  NAC unit:                   si        
  SOC unit:                   cm-1
  Select EG output:           []        
  Select NAC output:          []        
  Select SOC output:          []          
  Data permutation            No        
  Elements                              
-------------------------------------------------------

        

  NequIP-NAC (Energy + Gradient + NAC)

  &hyperparameters            Energy+Gradient      Nonadiabatic         Spin-orbit
----------------------------------------------------------------------------------------------
  Model type:                 NequIPeg            NequIPnac           n/a          
  Model path:                 dbh-5.nequip.pth     dbh-5.nequip.pth     n/a                 
  GPU:                        1                    1                    n/a                 
  Chemical symbols:           auto                 auto                 n/a                 
----------------------------------------------------------------------------------------------
        


 *---------------------------------------------------*
 |                                                   |
 |          Nonadiabatic Molecular Dynamics          |
 |                                                   |
 *---------------------------------------------------*


  State order:         1   2
  Multiplicity:        1   1

  QMMM key:         None
  QMMM xyz          Input
  Active atoms:     15
  Inactive atoms:   0
  Link atoms:       0
  Highlevel atoms:  15
  Midlevel atoms:   0
  Lowlevel atoms:   0
  
  Lattice vector:   None
  Periodic X/Y/Z:   None

  Iter:        1  Ekin =           0.0608566308692459 au T =   854.09 K dt =         20 CI:   2
  Root chosen for geometry opt   2

  Gnuplot:           0.0000000000000000           1.0000000000000000        -302.9234839339587779        -302.7593282339198595        -302.7593282339198595
  **
  **
  **
  A surface hopping is not allowed
  **
  At state:   2


  &surface hopping information
-------------------------------------------------------
  No surface hopping is performed
-------------------------------------------------------

  
  &error iter 1         
-------------------------------------------------------
  Energy   MaxStDev:          0.0000    
  Gradient MaxStDev:          0.0000    
  Nac      MaxStDev:          0.0000    
  Soc      MaxStDev:          0.0000    
-------------------------------------------------------

  Iter:        2  Ekin =           0.0676683074673777 au T =   949.69 K dt =         20 CI:   2
  Root chosen for geometry opt   2

  Gnuplot:           0.0000000000000000           1.0000000000000000        -302.9302683665059135        -302.7661357878375270        -302.7661357878375270
  **
  **
  **
  A surface hopping is not allowed
  **
  At state:   2


  &surface hopping information
-------------------------------------------------------
  No surface hopping is performed
-------------------------------------------------------

  
  &error iter 2         
-------------------------------------------------------
  Energy   MaxStDev:          0.0000    
  Gradient MaxStDev:          0.0000    
  Nac      MaxStDev:          0.0000    
  Soc      MaxStDev:          0.0000    
-------------------------------------------------------

  Iter:        3  Ekin =           0.0736441705075544 au T =  1033.56 K dt =         20 CI:   2
  Root chosen for geometry opt   2

  Gnuplot:           0.0000000000000000           1.0000000000000000        -302.9355336973599719        -302.7721187866289370        -302.7721187866289370
  **
  **
  **
  A surface hopping is not allowed
  **
  At state:   2


  &surface hopping information
-------------------------------------------------------
  No surface hopping is performed
-------------------------------------------------------

  
  &error iter 3         
-------------------------------------------------------
  Energy   MaxStDev:          0.0000    
  Gradient MaxStDev:          0.0000    
  Nac      MaxStDev:          0.0000    
  Soc      MaxStDev:          0.0000    
-------------------------------------------------------

  Iter:        4  Ekin =           0.0786218576115086 au T =  1103.41 K dt =         20 CI:   2
  Root chosen for geometry opt   2

  Gnuplot:           0.0000000180959519           0.9999999819040486        -302.9391730841832668        -302.7771420461569392        -302.7771420461569392
  **
  **
  **
  A surface hopping is not allowed
  **
  At state:   2


  &surface hopping information
-------------------------------------------------------

    Random number:             0.53182757
    Accumulated probability:   0.00000000
    state mult  level   probability 
    1     1     1       0.00000000
    2     1     2       0.00000000

    
-------------------------------------------------------

  
  &error iter 4         
-------------------------------------------------------
  Energy   MaxStDev:          0.0000    
  Gradient MaxStDev:          0.0000    
  Nac      MaxStDev:          0.0000    
  Soc      MaxStDev:          0.0000    
-------------------------------------------------------

  Iter:        5  Ekin =           0.0821943222850719 au T =  1153.55 K dt =         20 CI:   2
  Root chosen for geometry opt   2

  Gnuplot:           0.0000000608105428           0.9999999391894576        -302.9411347500029592        -302.7807441015366408        -302.7807441015366408
  **
  **
  **
  A surface hopping is not allowed
  **
  At state:   2


  &surface hopping information
-------------------------------------------------------

    Random number:             0.50183666
    Accumulated probability:   0.00000001
    state mult  level   probability 
    1     1     1       0.00000001
    2     1     2       0.00000000

    
-------------------------------------------------------

  
  &error iter 5         
-------------------------------------------------------
  Energy   MaxStDev:          0.0000    
  Gradient MaxStDev:          0.0000    
  Nac      MaxStDev:          0.0000    
  Soc      MaxStDev:          0.0000    
-------------------------------------------------------

  Iter:        6  Ekin =           0.0840069900468862 au T =  1178.99 K dt =         20 CI:   2
  Root chosen for geometry opt   2

  Gnuplot:           0.0000001017594236           0.9999998982405742        -302.9413801598715281        -302.7825941275285686        -302.7825941275285686
  **
  **
  **
  A surface hopping is not allowed
  **
  At state:   2


  &surface hopping information
-------------------------------------------------------

    Random number:             0.51042235
    Accumulated probability:   0.00000002
    state mult  level   probability 
    1     1     1       0.00000002
    2     1     2       0.00000000

    
-------------------------------------------------------

  
  &error iter 6         
-------------------------------------------------------
  Energy   MaxStDev:          0.0000    
  Gradient MaxStDev:          0.0000    
  Nac      MaxStDev:          0.0000    
  Soc      MaxStDev:          0.0000    
-------------------------------------------------------

  Iter:        7  Ekin =           0.0836177719572225 au T =  1173.53 K dt =         20 CI:   2
  Root chosen for geometry opt   2

  Gnuplot:           0.0000001076498342           0.9999998923501678        -302.9395626755380135        -302.7822805768846592        -302.7822805768846592
  **
  **
  **
  A surface hopping is not allowed
  **
  At state:   2


  &surface hopping information
-------------------------------------------------------

    Random number:             0.69552952
    Accumulated probability:   0.00000002
    state mult  level   probability 
    1     1     1       0.00000002
    2     1     2       0.00000000

    
-------------------------------------------------------

  
  &error iter 7         
-------------------------------------------------------
  Energy   MaxStDev:          0.0000    
  Gradient MaxStDev:          0.0000    
  Nac      MaxStDev:          0.0000    
  Soc      MaxStDev:          0.0000    
-------------------------------------------------------

  Iter:        8  Ekin =           0.0804372808393682 au T =  1128.89 K dt =         20 CI:   2
  Root chosen for geometry opt   2

  Gnuplot:           0.0000001495080023           0.9999998504920029        -302.9351663569605648        -302.7791175762813509        -302.7791175762813509
  **
  **
  **
  A surface hopping is not allowed
  **
  At state:   2


  &surface hopping information
-------------------------------------------------------

    Random number:             0.34345600
    Accumulated probability:   0.00000003
    state mult  level   probability 
    1     1     1       0.00000003
    2     1     2       0.00000000

    
-------------------------------------------------------

  
  &error iter 8         
-------------------------------------------------------
  Energy   MaxStDev:          0.0000    
  Gradient MaxStDev:          0.0000    
  Nac      MaxStDev:          0.0000    
  Soc      MaxStDev:          0.0000    
-------------------------------------------------------

  Iter:        9  Ekin =           0.0750399756883989 au T =  1053.14 K dt =         20 CI:   2
  Root chosen for geometry opt   2

  Gnuplot:           0.0000004453804648           0.9999995546195350        -302.9285911088917373        -302.7735306024760007        -302.7735306024760007
  **
  **
  **
  A surface hopping is not allowed
  **
  At state:   2


  &surface hopping information
-------------------------------------------------------

    Random number:             0.98834544
    Accumulated probability:   0.00000010
    state mult  level   probability 
    1     1     1       0.00000010
    2     1     2       0.00000000

    
-------------------------------------------------------

  
  &error iter 9         
-------------------------------------------------------
  Energy   MaxStDev:          0.0000    
  Gradient MaxStDev:          0.0000    
  Nac      MaxStDev:          0.0000    
  Soc      MaxStDev:          0.0000    
-------------------------------------------------------

  Iter:       10  Ekin =           0.0703501808010210 au T =   987.33 K dt =         20 CI:   2
  Root chosen for geometry opt   2

  Gnuplot:           0.0000012602026910           0.9999987397973200        -302.9228201588816773        -302.7685879927532255        -302.7685879927532255
  **
  **
  **
  A surface hopping is not allowed
  **
  At state:   2


  &surface hopping information
-------------------------------------------------------

    Random number:             0.54776359
    Accumulated probability:   0.00000025
    state mult  level   probability 
    1     1     1       0.00000025
    2     1     2       0.00000000

    
-------------------------------------------------------

  
  &error iter 10        
-------------------------------------------------------
  Energy   MaxStDev:          0.0000    
  Gradient MaxStDev:          0.0000    
  Nac      MaxStDev:          0.0000    
  Soc      MaxStDev:          0.0000    
-------------------------------------------------------

  Iter:       11  Ekin =           0.0699105779652044 au T =   981.16 K dt =         20 CI:   2
  Root chosen for geometry opt   2

  Gnuplot:           0.0000023222478529           0.9999976777521624        -302.9221063706498285        -302.7680883061767645        -302.7680883061767645
  **
  **
  **
  A surface hopping is not allowed
  **
  At state:   2


  &surface hopping information
-------------------------------------------------------

    Random number:             0.44032788
    Accumulated probability:   0.00000041
    state mult  level   probability 
    1     1     1       0.00000041
    2     1     2       0.00000000

    
-------------------------------------------------------

  
  &error iter 11        
-------------------------------------------------------
  Energy   MaxStDev:          0.0000    
  Gradient MaxStDev:          0.0000    
  Nac      MaxStDev:          0.0000    
  Soc      MaxStDev:          0.0000    
-------------------------------------------------------

  Iter:       12  Ekin =           0.0746278933429936 au T =  1047.36 K dt =         20 CI:   2
  Root chosen for geometry opt   2

  Gnuplot:           0.0000030357802935           0.9999969642196902        -302.9274987306179128        -302.7729896796015510        -302.7729896796015510
  **
  **
  **
  A surface hopping is not allowed
  **
  At state:   2


  &surface hopping information
-------------------------------------------------------

    Random number:             0.42430687
    Accumulated probability:   0.00000052
    state mult  level   probability 
    1     1     1       0.00000052
    2     1     2       0.00000000

    
-------------------------------------------------------

  
  &error iter 12        
-------------------------------------------------------
  Energy   MaxStDev:          0.0000    
  Gradient MaxStDev:          0.0000    
  Nac      MaxStDev:          0.0000    
  Soc      MaxStDev:          0.0000    
-------------------------------------------------------

  Iter:       13  Ekin =           0.0821953422041238 au T =  1153.57 K dt =         20 CI:   2
  Root chosen for geometry opt   2

  Gnuplot:           0.0000032652684672           0.9999967347314396        -302.9358403024352242        -302.7807602692273576        -302.7807602692273576
  **
  **
  **
  A surface hopping is not allowed
  **
  At state:   2


  &surface hopping information
-------------------------------------------------------

    Random number:             0.12175436
    Accumulated probability:   0.00000056
    state mult  level   probability 
    1     1     1       0.00000056
    2     1     2       0.00000000

    
-------------------------------------------------------

  
  &error iter 13        
-------------------------------------------------------
  Energy   MaxStDev:          0.0000    
  Gradient MaxStDev:          0.0000    
  Nac      MaxStDev:          0.0000    
  Soc      MaxStDev:          0.0000    
-------------------------------------------------------

  Iter:       14  Ekin =           0.0894157550736153 au T =  1254.90 K dt =         20 CI:   2
  Root chosen for geometry opt   2

  Gnuplot:           0.0000035769845463           0.9999964230155456        -302.9431731059178219        -302.7881376249391110        -302.7881376249391110
  **
  **
  **
  A surface hopping is not allowed
  **
  At state:   2


  &surface hopping information
-------------------------------------------------------

    Random number:             0.18690374
    Accumulated probability:   0.00000066
    state mult  level   probability 
    1     1     1       0.00000066
    2     1     2       0.00000000

    
-------------------------------------------------------

  
  &error iter 14        
-------------------------------------------------------
  Energy   MaxStDev:          0.0000    
  Gradient MaxStDev:          0.0000    
  Nac      MaxStDev:          0.0000    
  Soc      MaxStDev:          0.0000    
-------------------------------------------------------

  Iter:       15  Ekin =           0.0935557613349575 au T =  1313.00 K dt =         20 CI:   2
  Root chosen for geometry opt   2

  Gnuplot:           0.0000044886966345           0.9999955113034957        -302.9470717452867916        -302.7924110155704511        -302.7924110155704511
  **
  **
  **
  A surface hopping is not allowed
  **
  At state:   2


  &surface hopping information
-------------------------------------------------------

    Random number:             0.62630934
    Accumulated probability:   0.00000088
    state mult  level   probability 
    1     1     1       0.00000088
    2     1     2       0.00000000

    
-------------------------------------------------------

  
  &error iter 15        
-------------------------------------------------------
  Energy   MaxStDev:          0.0000    
  Gradient MaxStDev:          0.0000    
  Nac      MaxStDev:          0.0000    
  Soc      MaxStDev:          0.0000    
-------------------------------------------------------

  Iter:       16  Ekin =           0.0923916414311646 au T =  1296.67 K dt =         20 CI:   2
  Root chosen for geometry opt   2

  Gnuplot:           0.0000056140115103           0.9999943859884297        -302.9457962873598262        -302.7913078029556004        -302.7913078029556004
  **
  **
  **
  A surface hopping is not allowed
  **
  At state:   2


  &surface hopping information
-------------------------------------------------------

    Random number:             0.26690581
    Accumulated probability:   0.00000106
    state mult  level   probability 
    1     1     1       0.00000106
    2     1     2       0.00000000

    
-------------------------------------------------------

  
  &error iter 16        
-------------------------------------------------------
  Energy   MaxStDev:          0.0000    
  Gradient MaxStDev:          0.0000    
  Nac      MaxStDev:          0.0000    
  Soc      MaxStDev:          0.0000    
-------------------------------------------------------

  Iter:       17  Ekin =           0.0851555413342052 au T =  1195.11 K dt =         20 CI:   2
  Root chosen for geometry opt   2

  Gnuplot:           0.0000061422355979           0.9999938577643661        -302.9384098917306005        -302.7839248239294534        -302.7839248239294534
  **
  **
  **
  A surface hopping is not allowed
  **
  At state:   2


  &surface hopping information
-------------------------------------------------------

    Random number:             0.02619660
    Accumulated probability:   0.00000104
    state mult  level   probability 
    1     1     1       0.00000104
    2     1     2       0.00000000

    
-------------------------------------------------------

  
  &error iter 17        
-------------------------------------------------------
  Energy   MaxStDev:          0.0000    
  Gradient MaxStDev:          0.0000    
  Nac      MaxStDev:          0.0000    
  Soc      MaxStDev:          0.0000    
-------------------------------------------------------

  Iter:       18  Ekin =           0.0739437468464950 au T =  1037.76 K dt =         20 CI:   2
  Root chosen for geometry opt   2

  Gnuplot:           0.0000062032781800           0.9999937967218102        -302.9265569110309002        -302.7723975637134117        -302.7723975637134117
  **
  **
  **
  A surface hopping is not allowed
  **
  At state:   2


  &surface hopping information
-------------------------------------------------------

    Random number:             0.59648693
    Accumulated probability:   0.00000093
    state mult  level   probability 
    1     1     1       0.00000093
    2     1     2       0.00000000

    
-------------------------------------------------------

  
  &error iter 18        
-------------------------------------------------------
  Energy   MaxStDev:          0.0000    
  Gradient MaxStDev:          0.0000    
  Nac      MaxStDev:          0.0000    
  Soc      MaxStDev:          0.0000    
-------------------------------------------------------

  Iter:       19  Ekin =           0.0631387336569821 au T =   886.12 K dt =         20 CI:   2
  Root chosen for geometry opt   2

  Gnuplot:           0.0000061670985536           0.9999938329015094        -302.9146937260443906        -302.7613124845083803        -302.7613124845083803
  **
  **
  **
  A surface hopping is not allowed
  **
  At state:   2


  &surface hopping information
-------------------------------------------------------

    Random number:             0.50056142
    Accumulated probability:   0.00000082
    state mult  level   probability 
    1     1     1       0.00000082
    2     1     2       0.00000000

    
-------------------------------------------------------

  
  &error iter 19        
-------------------------------------------------------
  Energy   MaxStDev:          0.0000    
  Gradient MaxStDev:          0.0000    
  Nac      MaxStDev:          0.0000    
  Soc      MaxStDev:          0.0000    
-------------------------------------------------------

  Iter:       20  Ekin =           0.0567265269145711 au T =   796.13 K dt =         20 CI:   2
  Root chosen for geometry opt   2

  Gnuplot:           0.0000059973008097           0.9999940026991680        -302.9073221458243665        -302.7548129116560744        -302.7548129116560744
  **
  **
  **
  A surface hopping is not allowed
  **
  At state:   2


  &surface hopping information
-------------------------------------------------------

    Random number:             0.24221981
    Accumulated probability:   0.00000074
    state mult  level   probability 
    1     1     1       0.00000074
    2     1     2       0.00000000

    
-------------------------------------------------------

  
  &error iter 20        
-------------------------------------------------------
  Energy   MaxStDev:          0.0000    
  Gradient MaxStDev:          0.0000    
  Nac      MaxStDev:          0.0000    
  Soc      MaxStDev:          0.0000    
-------------------------------------------------------

  Iter:       21  Ekin =           0.0560156130268830 au T =   786.15 K dt =         20 CI:   2
  Root chosen for geometry opt   2

  Gnuplot:           0.0000058701812812           0.9999941298187878        -302.9060216700415822        -302.7542129824873314        -302.7542129824873314
  **
  **
  **
  A surface hopping is not allowed
  **
  At state:   2


  &surface hopping information
-------------------------------------------------------

    Random number:             0.36418745
    Accumulated probability:   0.00000074
    state mult  level   probability 
    1     1     1       0.00000074
    2     1     2       0.00000000

    
-------------------------------------------------------

  
  &error iter 21        
-------------------------------------------------------
  Energy   MaxStDev:          0.0000    
  Gradient MaxStDev:          0.0000    
  Nac      MaxStDev:          0.0000    
  Soc      MaxStDev:          0.0000    
-------------------------------------------------------

  Iter:       22  Ekin =           0.0593885195339019 au T =   833.49 K dt =         20 CI:   2
  Root chosen for geometry opt   2

  Gnuplot:           0.0000060936645871           0.9999939063354759        -302.9089538473265861        -302.7577951760497399        -302.7577951760497399
  **
  **
  **
  A surface hopping is not allowed
  **
  At state:   2


  &surface hopping information
-------------------------------------------------------

    Random number:             0.23747823
    Accumulated probability:   0.00000083
    state mult  level   probability 
    1     1     1       0.00000083
    2     1     2       0.00000000

    
-------------------------------------------------------

  
  &error iter 22        
-------------------------------------------------------
  Energy   MaxStDev:          0.0000    
  Gradient MaxStDev:          0.0000    
  Nac      MaxStDev:          0.0000    
  Soc      MaxStDev:          0.0000    
-------------------------------------------------------

  Iter:       23  Ekin =           0.0638420475430262 au T =   895.99 K dt =         20 CI:   2
  Root chosen for geometry opt   2

  Gnuplot:           0.0000065789247091           0.9999934210754873        -302.9129174166766916        -302.7623879931342685        -302.7623879931342685
  **
  **
  **
  A surface hopping is not allowed
  **
  At state:   2


  &surface hopping information
-------------------------------------------------------

    Random number:             0.84575248
    Accumulated probability:   0.00000095
    state mult  level   probability 
    1     1     1       0.00000095
    2     1     2       0.00000000

    
-------------------------------------------------------

  
  &error iter 23        
-------------------------------------------------------
  Energy   MaxStDev:          0.0000    
  Gradient MaxStDev:          0.0000    
  Nac      MaxStDev:          0.0000    
  Soc      MaxStDev:          0.0000    
-------------------------------------------------------

  Iter:       24  Ekin =           0.0672014506661911 au T =   943.14 K dt =         20 CI:   2
  Root chosen for geometry opt   2

  Gnuplot:           0.0000070346564908           0.9999929653436084        -302.9158669932804742        -302.7657416970484974        -302.7657416970484974
  **
  **
  **
  A surface hopping is not allowed
  **
  At state:   2


  &surface hopping information
-------------------------------------------------------

    Random number:             0.86335337
    Accumulated probability:   0.00000103
    state mult  level   probability 
    1     1     1       0.00000103
    2     1     2       0.00000000

    
-------------------------------------------------------

  
  &error iter 24        
-------------------------------------------------------
  Energy   MaxStDev:          0.0000    
  Gradient MaxStDev:          0.0000    
  Nac      MaxStDev:          0.0000    
  Soc      MaxStDev:          0.0000    
-------------------------------------------------------

  Iter:       25  Ekin =           0.0691787202426423 au T =   970.89 K dt =         20 CI:   2
  Root chosen for geometry opt   2

  Gnuplot:           0.0000072252054462           0.9999927747944639        -302.9177697371247859        -302.7676408604470453        -302.7676408604470453
  **
  **
  **
  A surface hopping is not allowed
  **
  At state:   2


  &surface hopping information
-------------------------------------------------------

    Random number:             0.44169739
    Accumulated probability:   0.00000105
    state mult  level   probability 
    1     1     1       0.00000105
    2     1     2       0.00000000

    
-------------------------------------------------------

  
  &error iter 25        
-------------------------------------------------------
  Energy   MaxStDev:          0.0000    
  Gradient MaxStDev:          0.0000    
  Nac      MaxStDev:          0.0000    
  Soc      MaxStDev:          0.0000    
-------------------------------------------------------

  Iter:       26  Ekin =           0.0707092425529884 au T =   992.37 K dt =         20 CI:   2
  Root chosen for geometry opt   2

  Gnuplot:           0.0000071693515773           0.9999928306483525        -302.9195875137007192        -302.7690997505196719        -302.7690997505196719
  **
  **
  **
  A surface hopping is not allowed
  **
  At state:   2


  &surface hopping information
-------------------------------------------------------

    Random number:             0.92455190
    Accumulated probability:   0.00000105
    state mult  level   probability 
    1     1     1       0.00000105
    2     1     2       0.00000000

    
-------------------------------------------------------

  
  &error iter 26        
-------------------------------------------------------
  Energy   MaxStDev:          0.0000    
  Gradient MaxStDev:          0.0000    
  Nac      MaxStDev:          0.0000    
  Soc      MaxStDev:          0.0000    
-------------------------------------------------------

  Iter:       27  Ekin =           0.0726348340174756 au T =  1019.39 K dt =         20 CI:   2
  Root chosen for geometry opt   2

  Gnuplot:           0.0000071836490253           0.9999928163510958        -302.9218831385318254        -302.7710679099831736        -302.7710679099831736
  **
  **
  **
  A surface hopping is not allowed
  **
  At state:   2


  &surface hopping information
-------------------------------------------------------

    Random number:             0.23008996
    Accumulated probability:   0.00000109
    state mult  level   probability 
    1     1     1       0.00000109
    2     1     2       0.00000000

    
-------------------------------------------------------

  
  &error iter 27        
-------------------------------------------------------
  Energy   MaxStDev:          0.0000    
  Gradient MaxStDev:          0.0000    
  Nac      MaxStDev:          0.0000    
  Soc      MaxStDev:          0.0000    
-------------------------------------------------------

  Iter:       28  Ekin =           0.0743289772900614 au T =  1043.17 K dt =         20 CI:   2
  Root chosen for geometry opt   2

  Gnuplot:           0.0000076354720603           0.9999923645282252        -302.9238487647752436        -302.7729496634850079        -302.7729496634850079
  **
  **
  **
  A surface hopping is not allowed
  **
  At state:   2


  &surface hopping information
-------------------------------------------------------

    Random number:             0.74461544
    Accumulated probability:   0.00000120
    state mult  level   probability 
    1     1     1       0.00000120
    2     1     2       0.00000000

    
-------------------------------------------------------

  
  &error iter 28        
-------------------------------------------------------
  Energy   MaxStDev:          0.0000    
  Gradient MaxStDev:          0.0000    
  Nac      MaxStDev:          0.0000    
  Soc      MaxStDev:          0.0000    
-------------------------------------------------------

  Iter:       29  Ekin =           0.0735618318344561 au T =  1032.40 K dt =         20 CI:   2
  Root chosen for geometry opt   2

  Gnuplot:           0.0000086882505361           0.9999913117499091        -302.9232647927259450        -302.7723559580277879        -302.7723559580277879
  **
  **
  **
  A surface hopping is not allowed
  **
  At state:   2


  &surface hopping information
-------------------------------------------------------

    Random number:             0.47777805
    Accumulated probability:   0.00000138
    state mult  level   probability 
    1     1     1       0.00000138
    2     1     2       0.00000000

    
-------------------------------------------------------

  
  &error iter 29        
-------------------------------------------------------
  Energy   MaxStDev:          0.0000    
  Gradient MaxStDev:          0.0000    
  Nac      MaxStDev:          0.0000    
  Soc      MaxStDev:          0.0000    
-------------------------------------------------------

  Iter:       30  Ekin =           0.0686352667866524 au T =   963.26 K dt =         20 CI:   2
  Root chosen for geometry opt   2

  Gnuplot:           0.0000098888098071           0.9999901111905274        -302.9182068189011261        -302.7673544089817028        -302.7673544089817028
  **
  **
  **
  A surface hopping is not allowed
  **
  At state:   2


  &surface hopping information
-------------------------------------------------------

    Random number:             0.67112660
    Accumulated probability:   0.00000146
    state mult  level   probability 
    1     1     1       0.00000146
    2     1     2       0.00000000

    
-------------------------------------------------------

  
  &error iter 30        
-------------------------------------------------------
  Energy   MaxStDev:          0.0000    
  Gradient MaxStDev:          0.0000    
  Nac      MaxStDev:          0.0000    
  Soc      MaxStDev:          0.0000    
-------------------------------------------------------

  Iter:       31  Ekin =           0.0612436217975987 au T =   859.52 K dt =         20 CI:   2
  Root chosen for geometry opt   2

  Gnuplot:           0.0000105216549730           0.9999894783450145        -302.9099954361414007        -302.7596137961166960        -302.7596137961166960
  **
  **
  **
  A surface hopping is not allowed
  **
  At state:   2


  &surface hopping information
-------------------------------------------------------

    Random number:             0.24862377
    Accumulated probability:   0.00000137
    state mult  level   probability 
    1     1     1       0.00000137
    2     1     2       0.00000000

    
-------------------------------------------------------

  
  &error iter 31        
-------------------------------------------------------
  Energy   MaxStDev:          0.0000    
  Gradient MaxStDev:          0.0000    
  Nac      MaxStDev:          0.0000    
  Soc      MaxStDev:          0.0000    
-------------------------------------------------------

  Iter:       32  Ekin =           0.0562460362317977 au T =   789.38 K dt =         20 CI:   2
  Root chosen for geometry opt   2

  Gnuplot:           0.0000102329726529           0.9999897670277278        -302.9040992915161041        -302.7543353173469995        -302.7543353173469995
  **
  **
  **
  A surface hopping is not allowed
  **
  At state:   2


  &surface hopping information
-------------------------------------------------------

    Random number:             0.95631200
    Accumulated probability:   0.00000122
    state mult  level   probability 
    1     1     1       0.00000122
    2     1     2       0.00000000

    
-------------------------------------------------------

  
  &error iter 32        
-------------------------------------------------------
  Energy   MaxStDev:          0.0000    
  Gradient MaxStDev:          0.0000    
  Nac      MaxStDev:          0.0000    
  Soc      MaxStDev:          0.0000    
-------------------------------------------------------

  Iter:       33  Ekin =           0.0577416757297096 au T =   810.37 K dt =         20 CI:   2
  Root chosen for geometry opt   2

  Gnuplot:           0.0000090109701239           0.9999909890302661        -302.9055498340599115        -302.7558157827033369        -302.7558157827033369
  **
  **
  **
  A surface hopping is not allowed
  **
  At state:   2


  &surface hopping information
-------------------------------------------------------

    Random number:             0.03191799
    Accumulated probability:   0.00000109
    state mult  level   probability 
    1     1     1       0.00000109
    2     1     2       0.00000000

    
-------------------------------------------------------

  
  &error iter 33        
-------------------------------------------------------
  Energy   MaxStDev:          0.0000    
  Gradient MaxStDev:          0.0000    
  Nac      MaxStDev:          0.0000    
  Soc      MaxStDev:          0.0000    
-------------------------------------------------------

  Iter:       34  Ekin =           0.0661004882545729 au T =   927.68 K dt =         20 CI:   2
  Root chosen for geometry opt   2

  Gnuplot:           0.0000072674335070           0.9999927325666249        -302.9148778763035352        -302.7643854967308812        -302.7643854967308812
  **
  **
  **
  A surface hopping is not allowed
  **
  At state:   2


  &surface hopping information
-------------------------------------------------------

    Random number:             0.16200083
    Accumulated probability:   0.00000096
    state mult  level   probability 
    1     1     1       0.00000096
    2     1     2       0.00000000

    
-------------------------------------------------------

  
  &error iter 34        
-------------------------------------------------------
  Energy   MaxStDev:          0.0000    
  Gradient MaxStDev:          0.0000    
  Nac      MaxStDev:          0.0000    
  Soc      MaxStDev:          0.0000    
-------------------------------------------------------

  Iter:       35  Ekin =           0.0781298409033180 au T =  1096.51 K dt =         20 CI:   2
  Root chosen for geometry opt   2

  Gnuplot:           0.0000057531511229           0.9999942468489280        -302.9283620841595734        -302.7767403312287229        -302.7767403312287229
  **
  **
  **
  A surface hopping is not allowed
  **
  At state:   2


  &surface hopping information
-------------------------------------------------------

    Random number:             0.19600947
    Accumulated probability:   0.00000087
    state mult  level   probability 
    1     1     1       0.00000087
    2     1     2       0.00000000

    
-------------------------------------------------------

  
  &error iter 35        
-------------------------------------------------------
  Energy   MaxStDev:          0.0000    
  Gradient MaxStDev:          0.0000    
  Nac      MaxStDev:          0.0000    
  Soc      MaxStDev:          0.0000    
-------------------------------------------------------

  Iter:       36  Ekin =           0.0887502427187548 au T =  1245.56 K dt =         20 CI:   2
  Root chosen for geometry opt   2

  Gnuplot:           0.0000048225517607           0.9999951774484543        -302.9403830407400164        -302.7876721239928202        -302.7876721239928202
  **
  **
  **
  A surface hopping is not allowed
  **
  At state:   2


  &surface hopping information
-------------------------------------------------------

    Random number:             0.81031483
    Accumulated probability:   0.00000081
    state mult  level   probability 
    1     1     1       0.00000081
    2     1     2       0.00000000

    
-------------------------------------------------------

  
  &error iter 36        
-------------------------------------------------------
  Energy   MaxStDev:          0.0000    
  Gradient MaxStDev:          0.0000    
  Nac      MaxStDev:          0.0000    
  Soc      MaxStDev:          0.0000    
-------------------------------------------------------

  Iter:       37  Ekin =           0.0931585181082154 au T =  1307.43 K dt =         20 CI:   2
  Root chosen for geometry opt   2

  Gnuplot:           0.0000042149882912           0.9999957850118335        -302.9462256908573181        -302.7922293873697868        -302.7922293873697868
  **
  **
  **
  A surface hopping is not allowed
  **
  At state:   2


  &surface hopping information
-------------------------------------------------------

    Random number:             0.44046199
    Accumulated probability:   0.00000073
    state mult  level   probability 
    1     1     1       0.00000073
    2     1     2       0.00000000

    
-------------------------------------------------------

  
  &error iter 37        
-------------------------------------------------------
  Energy   MaxStDev:          0.0000    
  Gradient MaxStDev:          0.0000    
  Nac      MaxStDev:          0.0000    
  Soc      MaxStDev:          0.0000    
-------------------------------------------------------

  Iter:       38  Ekin =           0.0891471738406780 au T =  1251.13 K dt =         20 CI:   2
  Root chosen for geometry opt   2

  Gnuplot:           0.0000035295358226           0.9999964704641116        -302.9438412349004466        -302.7880944269462589        -302.7880944269462589
  **
  **
  **
  A surface hopping is not allowed
  **
  At state:   2


  &surface hopping information
-------------------------------------------------------

    Random number:             0.84750229
    Accumulated probability:   0.00000057
    state mult  level   probability 
    1     1     1       0.00000057
    2     1     2       0.00000000

    
-------------------------------------------------------

  
  &error iter 38        
-------------------------------------------------------
  Energy   MaxStDev:          0.0000    
  Gradient MaxStDev:          0.0000    
  Nac      MaxStDev:          0.0000    
  Soc      MaxStDev:          0.0000    
-------------------------------------------------------

  Iter:       39  Ekin =           0.0784619921643334 au T =  1101.17 K dt =         20 CI:   2
  Root chosen for geometry opt   2

  Gnuplot:           0.0000025516787346           0.9999974483212100        -302.9347598258347034        -302.7770582145580534        -302.7770582145580534
  **
  **
  **
  A surface hopping is not allowed
  **
  At state:   2


  &surface hopping information
-------------------------------------------------------

    Random number:             0.02734078
    Accumulated probability:   0.00000035
    state mult  level   probability 
    1     1     1       0.00000035
    2     1     2       0.00000000

    
-------------------------------------------------------

  
  &error iter 39        
-------------------------------------------------------
  Energy   MaxStDev:          0.0000    
  Gradient MaxStDev:          0.0000    
  Nac      MaxStDev:          0.0000    
  Soc      MaxStDev:          0.0000    
-------------------------------------------------------

  Iter:       40  Ekin =           0.0660651074509099 au T =   927.19 K dt =         20 CI:   2
  Root chosen for geometry opt   2

  Gnuplot:           0.0000014856032126           0.9999985143967933        -302.9235320403005289        -302.7642854090265132        -302.7642854090265132
  **
  **
  **
  A surface hopping is not allowed
  **
  At state:   2


  &surface hopping information
-------------------------------------------------------

    Random number:             0.52388066
    Accumulated probability:   0.00000015
    state mult  level   probability 
    1     1     1       0.00000015
    2     1     2       0.00000000

    
-------------------------------------------------------

  
  &error iter 40        
-------------------------------------------------------
  Energy   MaxStDev:          0.0000    
  Gradient MaxStDev:          0.0000    
  Nac      MaxStDev:          0.0000    
  Soc      MaxStDev:          0.0000    
-------------------------------------------------------

  Iter:       41  Ekin =           0.0572654354741386 au T =   803.69 K dt =         20 CI:   2
  Root chosen for geometry opt   2

  Gnuplot:           0.0000006680588730           0.9999993319411260        -302.9154827897633027        -302.7553180255055167        -302.7553180255055167
  **
  **
  **
  A surface hopping is not allowed
  **
  At state:   2


  &surface hopping information
-------------------------------------------------------

    Random number:             0.83538866
    Accumulated probability:   0.00000005
    state mult  level   probability 
    1     1     1       0.00000005
    2     1     2       0.00000000

    
-------------------------------------------------------

  
  &error iter 41        
-------------------------------------------------------
  Energy   MaxStDev:          0.0000    
  Gradient MaxStDev:          0.0000    
  Nac      MaxStDev:          0.0000    
  Soc      MaxStDev:          0.0000    
-------------------------------------------------------

  Iter:       42  Ekin =           0.0545104163316821 au T =   765.02 K dt =         20 CI:   2
  Root chosen for geometry opt   2

  Gnuplot:           0.0000002416120006           0.9999997583879860        -302.9133620272797316        -302.7526687632685025        -302.7526687632685025
  **
  **
  **
  A surface hopping is not allowed
  **
  At state:   2


  &surface hopping information
-------------------------------------------------------

    Random number:             0.83534312
    Accumulated probability:   0.00000002
    state mult  level   probability 
    1     1     1       0.00000002
    2     1     2       0.00000000

    
-------------------------------------------------------

  
  &error iter 42        
-------------------------------------------------------
  Energy   MaxStDev:          0.0000    
  Gradient MaxStDev:          0.0000    
  Nac      MaxStDev:          0.0000    
  Soc      MaxStDev:          0.0000    
-------------------------------------------------------

  Iter:       43  Ekin =           0.0564923213641731 au T =   792.84 K dt =         20 CI:   2
  Root chosen for geometry opt   2

  Gnuplot:           0.0000000725076897           0.9999999274923113        -302.9158301572309142        -302.7548640979775882        -302.7548640979775882
  **
  **
  **
  A surface hopping is not allowed
  **
  At state:   2


  &surface hopping information
-------------------------------------------------------

    Random number:             0.31050873
    Accumulated probability:   0.00000000
    state mult  level   probability 
    1     1     1       0.00000000
    2     1     2       0.00000000

    
-------------------------------------------------------

  
  &error iter 43        
-------------------------------------------------------
  Energy   MaxStDev:          0.0000    
  Gradient MaxStDev:          0.0000    
  Nac      MaxStDev:          0.0000    
  Soc      MaxStDev:          0.0000    
-------------------------------------------------------

  Iter:       44  Ekin =           0.0601873678558545 au T =   844.70 K dt =         20 CI:   2
  Root chosen for geometry opt   2

  Gnuplot:           0.0000000152594950           0.9999999847405050        -302.9196519531467970        -302.7587046929685926        -302.7587046929685926
  **
  **
  **
  A surface hopping is not allowed
  **
  At state:   2


  &surface hopping information
-------------------------------------------------------

    Random number:             0.36726555
    Accumulated probability:   0.00000000
    state mult  level   probability 
    1     1     1       0.00000000
    2     1     2       0.00000000

    
-------------------------------------------------------

  
  &error iter 44        
-------------------------------------------------------
  Energy   MaxStDev:          0.0000    
  Gradient MaxStDev:          0.0000    
  Nac      MaxStDev:          0.0000    
  Soc      MaxStDev:          0.0000    
-------------------------------------------------------

  Iter:       45  Ekin =           0.0633416743400898 au T =   888.97 K dt =         20 CI:   2
  Root chosen for geometry opt   2

  Gnuplot:           0.0000000013917478           0.9999999986082523        -302.9225391086375794        -302.7618738716435018        -302.7618738716435018
  **
  **
  **
  A surface hopping is not allowed
  **
  At state:   2


  &surface hopping information
-------------------------------------------------------

    Random number:             0.49291372
    Accumulated probability:   0.00000000
    state mult  level   probability 
    1     1     1       0.00000000
    2     1     2       0.00000000

    
-------------------------------------------------------

  
  &error iter 45        
-------------------------------------------------------
  Energy   MaxStDev:          0.0000    
  Gradient MaxStDev:          0.0000    
  Nac      MaxStDev:          0.0000    
  Soc      MaxStDev:          0.0000    
-------------------------------------------------------

  Iter:       46  Ekin =           0.0655023225401644 au T =   919.29 K dt =         20 CI:   2
  Root chosen for geometry opt   2

  Gnuplot:           0.0000000001193762           0.9999999998806238        -302.9243464425895809        -302.7639666916612100        -302.7639666916612100
  **
  **
  **
  A surface hopping is not allowed
  **
  At state:   2


  &surface hopping information
-------------------------------------------------------

    Random number:             0.87132633
    Accumulated probability:   0.00000000
    state mult  level   probability 
    1     1     1       0.00000000
    2     1     2       0.00000000

    
-------------------------------------------------------

  
  &error iter 46        
-------------------------------------------------------
  Energy   MaxStDev:          0.0000    
  Gradient MaxStDev:          0.0000    
  Nac      MaxStDev:          0.0000    
  Soc      MaxStDev:          0.0000    
-------------------------------------------------------

  Iter:       47  Ekin =           0.0674328611305818 au T =   946.38 K dt =         20 CI:   2
  Root chosen for geometry opt   2

  Gnuplot:           0.0000000034043826           0.9999999965956174        -302.9260684836111750        -302.7658458406824025        -302.7658458406824025
  **
  **
  **
  A surface hopping is not allowed
  **
  At state:   2


  &surface hopping information
-------------------------------------------------------

    Random number:             0.75112122
    Accumulated probability:   0.00000000
    state mult  level   probability 
    1     1     1       0.00000000
    2     1     2       0.00000000

    
-------------------------------------------------------

  
  &error iter 47        
-------------------------------------------------------
  Energy   MaxStDev:          0.0000    
  Gradient MaxStDev:          0.0000    
  Nac      MaxStDev:          0.0000    
  Soc      MaxStDev:          0.0000    
-------------------------------------------------------

  Iter:       48  Ekin =           0.0697149385509535 au T =   978.41 K dt =         20 CI:   2
  Root chosen for geometry opt   2

  Gnuplot:           0.0000000230473289           0.9999999769526706        -302.9281157974735947        -302.7681831644614476        -302.7681831644614476
  **
  **
  **
  A surface hopping is not allowed
  **
  At state:   2


  &surface hopping information
-------------------------------------------------------

    Random number:             0.06073962
    Accumulated probability:   0.00000001
    state mult  level   probability 
    1     1     1       0.00000001
    2     1     2       0.00000000

    
-------------------------------------------------------

  
  &error iter 48        
-------------------------------------------------------
  Energy   MaxStDev:          0.0000    
  Gradient MaxStDev:          0.0000    
  Nac      MaxStDev:          0.0000    
  Soc      MaxStDev:          0.0000    
-------------------------------------------------------

  Iter:       49  Ekin =           0.0715192020642717 au T =  1003.73 K dt =         20 CI:   2
  Root chosen for geometry opt   2

  Gnuplot:           0.0000000484404731           0.9999999515595270        -302.9293999946652320        -302.7701528762457883        -302.7701528762457883
  **
  **
  **
  A surface hopping is not allowed
  **
  At state:   2


  &surface hopping information
-------------------------------------------------------

    Random number:             0.49868822
    Accumulated probability:   0.00000001
    state mult  level   probability 
    1     1     1       0.00000001
    2     1     2       0.00000000

    
-------------------------------------------------------

  
  &error iter 49        
-------------------------------------------------------
  Energy   MaxStDev:          0.0000    
  Gradient MaxStDev:          0.0000    
  Nac      MaxStDev:          0.0000    
  Soc      MaxStDev:          0.0000    
-------------------------------------------------------

  Iter:       50  Ekin =           0.0707558844646445 au T =   993.02 K dt =         20 CI:   2
  Root chosen for geometry opt   2

  Gnuplot:           0.0000000350171496           0.9999999649828517        -302.9277549803263696        -302.7695237678386206        -302.7695237678386206
  **
  **
  **
  A surface hopping is not allowed
  **
  At state:   2


  &surface hopping information
-------------------------------------------------------

    Random number:             0.16322003
    Accumulated probability:   0.00000000
    state mult  level   probability 
    1     1     1       0.00000000
    2     1     2       0.00000000

    
-------------------------------------------------------

  
  &error iter 50        
-------------------------------------------------------
  Energy   MaxStDev:          0.0000    
  Gradient MaxStDev:          0.0000    
  Nac      MaxStDev:          0.0000    
  Soc      MaxStDev:          0.0000    
-------------------------------------------------------

  Iter:       51  Ekin =           0.0660131658547332 au T =   926.46 K dt =         20 CI:   2
  Root chosen for geometry opt   2

  Gnuplot:           0.0000000050777702           0.9999999949222298        -302.9218603705406849        -302.7647206002871485        -302.7647206002871485
  **
  **
  **
  A surface hopping is not allowed
  **
  At state:   2


  &surface hopping information
-------------------------------------------------------

    Random number:             0.63735676
    Accumulated probability:   0.00000000
    state mult  level   probability 
    1     1     1       0.00000000
    2     1     2       0.00000000

    
-------------------------------------------------------

  
  &error iter 51        
-------------------------------------------------------
  Energy   MaxStDev:          0.0000    
  Gradient MaxStDev:          0.0000    
  Nac      MaxStDev:          0.0000    
  Soc      MaxStDev:          0.0000    
-------------------------------------------------------

  Iter:       52  Ekin =           0.0588084702518731 au T =   825.34 K dt =         20 CI:   2
  Root chosen for geometry opt   2

  Gnuplot:           0.0000000025558845           0.9999999974441154        -302.9136053919191340        -302.7572104436139853        -302.7572104436139853
  **
  **
  **
  A surface hopping is not allowed
  **
  At state:   2


  &surface hopping information
-------------------------------------------------------

    Random number:             0.82653016
    Accumulated probability:   0.00000000
    state mult  level   probability 
    1     1     1       0.00000000
    2     1     2       0.00000000

    
-------------------------------------------------------

  
  &error iter 52        
-------------------------------------------------------
  Energy   MaxStDev:          0.0000    
  Gradient MaxStDev:          0.0000    
  Nac      MaxStDev:          0.0000    
  Soc      MaxStDev:          0.0000    
-------------------------------------------------------

  Iter:       53  Ekin =           0.0538768563226298 au T =   756.13 K dt =         20 CI:   2
  Root chosen for geometry opt   2

  Gnuplot:           0.0000000018868387           0.9999999981131613        -302.9082839565135146        -302.7519218215152819        -302.7519218215152819
  **
  **
  **
  A surface hopping is not allowed
  **
  At state:   2


  &surface hopping information
-------------------------------------------------------

    Random number:             0.29489470
    Accumulated probability:   0.00000000
    state mult  level   probability 
    1     1     1       0.00000000
    2     1     2       0.00000000

    
-------------------------------------------------------

  
  &error iter 53        
-------------------------------------------------------
  Energy   MaxStDev:          0.0000    
  Gradient MaxStDev:          0.0000    
  Nac      MaxStDev:          0.0000    
  Soc      MaxStDev:          0.0000    
-------------------------------------------------------

  Iter:       54  Ekin =           0.0560708099910415 au T =   786.92 K dt =         20 CI:   2
  Root chosen for geometry opt   2

  Gnuplot:           0.0000000408624361           0.9999999591375648        -302.9106828218403393        -302.7540689888422207        -302.7540689888422207
  **
  **
  **
  A surface hopping is not allowed
  **
  At state:   2


  &surface hopping information
-------------------------------------------------------

    Random number:             0.39012530
    Accumulated probability:   0.00000001
    state mult  level   probability 
    1     1     1       0.00000001
    2     1     2       0.00000000

    
-------------------------------------------------------

  
  &error iter 54        
-------------------------------------------------------
  Energy   MaxStDev:          0.0000    
  Gradient MaxStDev:          0.0000    
  Nac      MaxStDev:          0.0000    
  Soc      MaxStDev:          0.0000    
-------------------------------------------------------

  Iter:       55  Ekin =           0.0660347740213996 au T =   926.76 K dt =         20 CI:   2
  Root chosen for geometry opt   2

  Gnuplot:           0.0000001166539007           0.9999998833460992        -302.9209965507594120        -302.7643202829949587        -302.7643202829949587
  **
  **
  **
  A surface hopping is not allowed
  **
  At state:   2


  &surface hopping information
-------------------------------------------------------

    Random number:             0.23563835
    Accumulated probability:   0.00000002
    state mult  level   probability 
    1     1     1       0.00000002
    2     1     2       0.00000000

    
-------------------------------------------------------

  
  &error iter 55        
-------------------------------------------------------
  Energy   MaxStDev:          0.0000    
  Gradient MaxStDev:          0.0000    
  Nac      MaxStDev:          0.0000    
  Soc      MaxStDev:          0.0000    
-------------------------------------------------------

  Iter:       56  Ekin =           0.0798160970609279 au T =  1120.18 K dt =         20 CI:   2
  Root chosen for geometry opt   2

  Gnuplot:           0.0000001434258219           0.9999998565741777        -302.9348458536255748        -302.7784260047574207        -302.7784260047574207
  **
  **
  **
  A surface hopping is not allowed
  **
  At state:   2


  &surface hopping information
-------------------------------------------------------

    Random number:             0.38442123
    Accumulated probability:   0.00000002
    state mult  level   probability 
    1     1     1       0.00000002
    2     1     2       0.00000000

    
-------------------------------------------------------

  
  &error iter 56        
-------------------------------------------------------
  Energy   MaxStDev:          0.0000    
  Gradient MaxStDev:          0.0000    
  Nac      MaxStDev:          0.0000    
  Soc      MaxStDev:          0.0000    
-------------------------------------------------------

  Iter:       57  Ekin =           0.0920412314740950 au T =  1291.75 K dt =         20 CI:   2
  Root chosen for geometry opt   2

  Gnuplot:           0.0000000933083801           0.9999999066916203        -302.9466371103108600        -302.7909448060373734        -302.7909448060373734
  **
  **
  **
  A surface hopping is not allowed
  **
  At state:   2


  &surface hopping information
-------------------------------------------------------

    Random number:             0.86853385
    Accumulated probability:   0.00000001
    state mult  level   probability 
    1     1     1       0.00000001
    2     1     2       0.00000000

    
-------------------------------------------------------

  
  &error iter 57        
-------------------------------------------------------
  Energy   MaxStDev:          0.0000    
  Gradient MaxStDev:          0.0000    
  Nac      MaxStDev:          0.0000    
  Soc      MaxStDev:          0.0000    
-------------------------------------------------------

  Iter:       58  Ekin =           0.0981188327705410 au T =  1377.04 K dt =         20 CI:   2
  Root chosen for geometry opt   2

  Gnuplot:           0.0000000157568574           0.9999999842431428        -302.9520702117292217        -302.7971477863113137        -302.7971477863113137
  **
  **
  **
  A surface hopping is not allowed
  **
  At state:   2


  &surface hopping information
-------------------------------------------------------

    Random number:             0.26602650
    Accumulated probability:   0.00000000
    state mult  level   probability 
    1     1     1       0.00000000
    2     1     2       0.00000000

    
-------------------------------------------------------

  
  &error iter 58        
-------------------------------------------------------
  Energy   MaxStDev:          0.0000    
  Gradient MaxStDev:          0.0000    
  Nac      MaxStDev:          0.0000    
  Soc      MaxStDev:          0.0000    
-------------------------------------------------------

  Iter:       59  Ekin =           0.0960021849117141 au T =  1347.34 K dt =         20 CI:   2
  Root chosen for geometry opt   2

  Gnuplot:           0.0000000109750272           0.9999999890249729        -302.9493148983779065        -302.7949107740686827        -302.7949107740686827
  **
  **
  **
  A surface hopping is not allowed
  **
  At state:   2


  &surface hopping information
-------------------------------------------------------

    Random number:             0.39126256
    Accumulated probability:   0.00000000
    state mult  level   probability 
    1     1     1       0.00000000
    2     1     2       0.00000000

    
-------------------------------------------------------

  
  &error iter 59        
-------------------------------------------------------
  Energy   MaxStDev:          0.0000    
  Gradient MaxStDev:          0.0000    
  Nac      MaxStDev:          0.0000    
  Soc      MaxStDev:          0.0000    
-------------------------------------------------------

  Iter:       60  Ekin =           0.0871790463799983 au T =  1223.51 K dt =         20 CI:   2
  Root chosen for geometry opt   2

  Gnuplot:           0.0000000599961728           0.9999999400038249        -302.9396574325497227        -302.7858106461114858        -302.7858106461114858
  **
  **
  **
  A surface hopping is not allowed
  **
  At state:   2


  &surface hopping information
-------------------------------------------------------

    Random number:             0.86737633
    Accumulated probability:   0.00000001
    state mult  level   probability 
    1     1     1       0.00000001
    2     1     2       0.00000000

    
-------------------------------------------------------

  
  &error iter 60        
-------------------------------------------------------
  Energy   MaxStDev:          0.0000    
  Gradient MaxStDev:          0.0000    
  Nac      MaxStDev:          0.0000    
  Soc      MaxStDev:          0.0000    
-------------------------------------------------------

  Iter:       61  Ekin =           0.0756352943796561 au T =  1061.50 K dt =         20 CI:   2
  Root chosen for geometry opt   2

  Gnuplot:           0.0000001228730294           0.9999998771269674        -302.9268121953516584        -302.7739659444570748        -302.7739659444570748
  **
  **
  **
  A surface hopping is not allowed
  **
  At state:   2


  &surface hopping information
-------------------------------------------------------

    Random number:             0.87273532
    Accumulated probability:   0.00000002
    state mult  level   probability 
    1     1     1       0.00000002
    2     1     2       0.00000000

    
-------------------------------------------------------

  
  &error iter 61        
-------------------------------------------------------
  Energy   MaxStDev:          0.0000    
  Gradient MaxStDev:          0.0000    
  Nac      MaxStDev:          0.0000    
  Soc      MaxStDev:          0.0000    
-------------------------------------------------------

  Iter:       62  Ekin =           0.0658264176529527 au T =   923.84 K dt =         20 CI:   2
  Root chosen for geometry opt   2

  Gnuplot:           0.0000001434311615           0.9999998565688344        -302.9153277433638891        -302.7639782473675041        -302.7639782473675041
  **
  **
  **
  A surface hopping is not allowed
  **
  At state:   2


  &surface hopping information
-------------------------------------------------------

    Random number:             0.11751797
    Accumulated probability:   0.00000002
    state mult  level   probability 
    1     1     1       0.00000002
    2     1     2       0.00000000

    
-------------------------------------------------------

  
  &error iter 62        
-------------------------------------------------------
  Energy   MaxStDev:          0.0000    
  Gradient MaxStDev:          0.0000    
  Nac      MaxStDev:          0.0000    
  Soc      MaxStDev:          0.0000    
-------------------------------------------------------

  Iter:       63  Ekin =           0.0604712129491003 au T =   848.68 K dt =         20 CI:   2
  Root chosen for geometry opt   2

  Gnuplot:           0.0000000976303252           0.9999999023696731        -302.9083411859460853        -302.7586450487623324        -302.7586450487623324
  **
  **
  **
  A surface hopping is not allowed
  **
  At state:   2


  &surface hopping information
-------------------------------------------------------

    Random number:             0.19332297
    Accumulated probability:   0.00000001
    state mult  level   probability 
    1     1     1       0.00000001
    2     1     2       0.00000000

    
-------------------------------------------------------

  
  &error iter 63        
-------------------------------------------------------
  Energy   MaxStDev:          0.0000    
  Gradient MaxStDev:          0.0000    
  Nac      MaxStDev:          0.0000    
  Soc      MaxStDev:          0.0000    
-------------------------------------------------------

  Iter:       64  Ekin =           0.0594265373462586 au T =   834.02 K dt =         20 CI:   2
  Root chosen for geometry opt   2

  Gnuplot:           0.0000000373346746           0.9999999626653242        -302.9059073858238662        -302.7577528849757869        -302.7577528849757869
  **
  **
  **
  A surface hopping is not allowed
  **
  At state:   2


  &surface hopping information
-------------------------------------------------------

    Random number:             0.74706012
    Accumulated probability:   0.00000000
    state mult  level   probability 
    1     1     1       0.00000000
    2     1     2       0.00000000

    
-------------------------------------------------------

  
  &error iter 64        
-------------------------------------------------------
  Energy   MaxStDev:          0.0000    
  Gradient MaxStDev:          0.0000    
  Nac      MaxStDev:          0.0000    
  Soc      MaxStDev:          0.0000    
-------------------------------------------------------

  Iter:       65  Ekin =           0.0606039071168987 au T =   850.54 K dt =         20 CI:   2
  Root chosen for geometry opt   2

  Gnuplot:           0.0000000064024515           0.9999999935975485        -302.9057134309776416        -302.7590680242723238        -302.7590680242723238
  **
  **
  **
  A surface hopping is not allowed
  **
  At state:   2


  &surface hopping information
-------------------------------------------------------

    Random number:             0.24655974
    Accumulated probability:   0.00000000
    state mult  level   probability 
    1     1     1       0.00000000
    2     1     2       0.00000000

    
-------------------------------------------------------

  
  &error iter 65        
-------------------------------------------------------
  Energy   MaxStDev:          0.0000    
  Gradient MaxStDev:          0.0000    
  Nac      MaxStDev:          0.0000    
  Soc      MaxStDev:          0.0000    
-------------------------------------------------------

  Iter:       66  Ekin =           0.0619914334380089 au T =   870.02 K dt =         20 CI:   2
  Root chosen for geometry opt   2

  Gnuplot:           0.0000000014559684           0.9999999985440317        -302.9055924534425230        -302.7604833065118441        -302.7604833065118441
  **
  **
  **
  A surface hopping is not allowed
  **
  At state:   2


  &surface hopping information
-------------------------------------------------------

    Random number:             0.21946178
    Accumulated probability:   0.00000000
    state mult  level   probability 
    1     1     1       0.00000000
    2     1     2       0.00000000

    
-------------------------------------------------------

  
  &error iter 66        
-------------------------------------------------------
  Energy   MaxStDev:          0.0000    
  Gradient MaxStDev:          0.0000    
  Nac      MaxStDev:          0.0000    
  Soc      MaxStDev:          0.0000    
-------------------------------------------------------

  Iter:       67  Ekin =           0.0630281743626947 au T =   884.57 K dt =         20 CI:   2
  Root chosen for geometry opt   2

  Gnuplot:           0.0000000144148054           0.9999999855851947        -302.9051913729830972        -302.7614514441202687        -302.7614514441202687
  **
  **
  **
  A surface hopping is not allowed
  **
  At state:   2


  &surface hopping information
-------------------------------------------------------

    Random number:             0.99920124
    Accumulated probability:   0.00000000
    state mult  level   probability 
    1     1     1       0.00000000
    2     1     2       0.00000000

    
-------------------------------------------------------

  
  &error iter 67        
-------------------------------------------------------
  Energy   MaxStDev:          0.0000    
  Gradient MaxStDev:          0.0000    
  Nac      MaxStDev:          0.0000    
  Soc      MaxStDev:          0.0000    
-------------------------------------------------------

  Iter:       68  Ekin =           0.0643705319448602 au T =   903.41 K dt =         20 CI:   2
  Root chosen for geometry opt   2

  Gnuplot:           0.0000000461392542           0.9999999538607476        -302.9053894943110095        -302.7627484565824147        -302.7627484565824147
  **
  **
  **
  A surface hopping is not allowed
  **
  At state:   2


  &surface hopping information
-------------------------------------------------------

    Random number:             0.73272729
    Accumulated probability:   0.00000001
    state mult  level   probability 
    1     1     1       0.00000001
    2     1     2       0.00000000

    
-------------------------------------------------------

  
  &error iter 68        
-------------------------------------------------------
  Energy   MaxStDev:          0.0000    
  Gradient MaxStDev:          0.0000    
  Nac      MaxStDev:          0.0000    
  Soc      MaxStDev:          0.0000    
-------------------------------------------------------

  Iter:       69  Ekin =           0.0663883468022559 au T =   931.72 K dt =         20 CI:   2
  Root chosen for geometry opt   2

  Gnuplot:           0.0000001190523509           0.9999998809476480        -302.9064651596610815        -302.7648400908788062        -302.7648400908788062
  **
  **
  **
  A surface hopping is not allowed
  **
  At state:   2


  &surface hopping information
-------------------------------------------------------

    Random number:             0.93929583
    Accumulated probability:   0.00000002
    state mult  level   probability 
    1     1     1       0.00000002
    2     1     2       0.00000000

    
-------------------------------------------------------

  
  &error iter 69        
-------------------------------------------------------
  Energy   MaxStDev:          0.0000    
  Gradient MaxStDev:          0.0000    
  Nac      MaxStDev:          0.0000    
  Soc      MaxStDev:          0.0000    
-------------------------------------------------------

  Iter:       70  Ekin =           0.0679210262204191 au T =   953.23 K dt =         20 CI:   2
  Root chosen for geometry opt   2

  Gnuplot:           0.0000002571830474           0.9999997428169536        -302.9069998418465275        -302.7665526171798547        -302.7665526171798547
  **
  **
  **
  A surface hopping is not allowed
  **
  At state:   2


  &surface hopping information
-------------------------------------------------------

    Random number:             0.88738877
    Accumulated probability:   0.00000004
    state mult  level   probability 
    1     1     1       0.00000004
    2     1     2       0.00000000

    
-------------------------------------------------------

  
  &error iter 70        
-------------------------------------------------------
  Energy   MaxStDev:          0.0000    
  Gradient MaxStDev:          0.0000    
  Nac      MaxStDev:          0.0000    
  Soc      MaxStDev:          0.0000    
-------------------------------------------------------

  Iter:       71  Ekin =           0.0666218550424309 au T =   935.00 K dt =         20 CI:   2
  Root chosen for geometry opt   2

  Gnuplot:           0.0000004677175001           0.9999995322824873        -302.9044864839668776        -302.7653916679776671        -302.7653916679776671
  **
  **
  **
  A surface hopping is not allowed
  **
  At state:   2


  &surface hopping information
-------------------------------------------------------

    Random number:             0.21293491
    Accumulated probability:   0.00000007
    state mult  level   probability 
    1     1     1       0.00000007
    2     1     2       0.00000000

    
-------------------------------------------------------

  
  &error iter 71        
-------------------------------------------------------
  Energy   MaxStDev:          0.0000    
  Gradient MaxStDev:          0.0000    
  Nac      MaxStDev:          0.0000    
  Soc      MaxStDev:          0.0000    
-------------------------------------------------------

  Iter:       72  Ekin =           0.0608728786819786 au T =   854.32 K dt =         20 CI:   2
  Root chosen for geometry opt   2

  Gnuplot:           0.0000007387664200           0.9999992612335973        -302.8972680059688400        -302.7595951070457545        -302.7595951070457545
  **
  **
  **
  A surface hopping is not allowed
  **
  At state:   2


  &surface hopping information
-------------------------------------------------------

    Random number:             0.67282635
    Accumulated probability:   0.00000010
    state mult  level   probability 
    1     1     1       0.00000010
    2     1     2       0.00000000

    
[...]
  **
  At state:   1


  &surface hopping information
-------------------------------------------------------

    Random number:             0.52623904
    Accumulated probability:   0.00000000
    state mult  level   probability 
    1     1     1       0.00000000
    2     1     2       0.00000000

    
-------------------------------------------------------

  
  &error iter 577       
-------------------------------------------------------
  Energy   MaxStDev:          0.0000    
  Gradient MaxStDev:          0.0000    
  Nac      MaxStDev:          0.0000    
  Soc      MaxStDev:          0.0000    
-------------------------------------------------------

  Iter:      578  Ekin =           0.0949718945122953 au T =  1332.88 K dt =         20 CI:   2
  Root chosen for geometry opt   1

  Gnuplot:           0.9999953386936795           0.0000046613061605        -302.7915212201345412        -302.6207978578732991        -302.7915212201345412
  **
  **
  **
  A surface hopping is not allowed
  **
  At state:   1


  &surface hopping information
-------------------------------------------------------

    Random number:             0.52205408
    Accumulated probability:   0.00000163
    state mult  level   probability 
    1     1     1       0.00000000
    2     1     2       0.00000163

    
-------------------------------------------------------

  
  &error iter 578       
-------------------------------------------------------
  Energy   MaxStDev:          0.0000    
  Gradient MaxStDev:          0.0000    
  Nac      MaxStDev:          0.0000    
  Soc      MaxStDev:          0.0000    
-------------------------------------------------------

  Iter:      579  Ekin =           0.1068072254825704 au T =  1498.98 K dt =         20 CI:   2
  Root chosen for geometry opt   1

  Gnuplot:           0.9999873302667766           0.0000126697333221        -302.8033943673631825        -302.6335012819261010        -302.8033943673631825
  **
  **
  **
  A surface hopping is not allowed
  **
  At state:   1


  &surface hopping information
-------------------------------------------------------

    Random number:             0.03480672
    Accumulated probability:   0.00000330
    state mult  level   probability 
    1     1     1       0.00000000
    2     1     2       0.00000330

    
-------------------------------------------------------

  
  &error iter 579       
-------------------------------------------------------
  Energy   MaxStDev:          0.0000    
  Gradient MaxStDev:          0.0000    
  Nac      MaxStDev:          0.0000    
  Soc      MaxStDev:          0.0000    
-------------------------------------------------------

  Iter:      580  Ekin =           0.1264219250393437 au T =  1774.26 K dt =         20 CI:   2
  Root chosen for geometry opt   1

  Gnuplot:           0.9999879588694967           0.0000120411308064        -302.8239888815380709        -302.6534557820418740        -302.8239888815380709
  **
  **
  **
  A surface hopping is not allowed
  **
  At state:   1


  &surface hopping information
-------------------------------------------------------

    Random number:             0.44839904
    Accumulated probability:   0.00000276
    state mult  level   probability 
    1     1     1       0.00000000
    2     1     2       0.00000276

    
-------------------------------------------------------

  
  &error iter 580       
-------------------------------------------------------
  Energy   MaxStDev:          0.0000    
  Gradient MaxStDev:          0.0000    
  Nac      MaxStDev:          0.0000    
  Soc      MaxStDev:          0.0000    
-------------------------------------------------------

  Iter:      581  Ekin =           0.1418003255936341 au T =  1990.09 K dt =         20 CI:   2
  Root chosen for geometry opt   1

  Gnuplot:           0.9999744363394711           0.0000255636608339        -302.8399709354042670        -302.6674720501358706        -302.8399709354042670
  **
  **
  **
  A surface hopping is not allowed
  **
  At state:   1


  &surface hopping information
-------------------------------------------------------

    Random number:             0.16015144
    Accumulated probability:   0.00000795
    state mult  level   probability 
    1     1     1       0.00000000
    2     1     2       0.00000795

    
-------------------------------------------------------

  
  &error iter 581       
-------------------------------------------------------
  Energy   MaxStDev:          0.0000    
  Gradient MaxStDev:          0.0000    
  Nac      MaxStDev:          0.0000    
  Soc      MaxStDev:          0.0000    
-------------------------------------------------------

  Iter:      582  Ekin =           0.1455446446436134 au T =  2042.64 K dt =         20 CI:   2
  Root chosen for geometry opt   1

  Gnuplot:           0.9999367794152931           0.0000632205881103        -302.8429562962265322        -302.6638102008850524        -302.8429562962265322
  **
  **
  **
  A surface hopping is not allowed
  **
  At state:   1


  &surface hopping information
-------------------------------------------------------

    Random number:             0.66361934
    Accumulated probability:   0.00002034
    state mult  level   probability 
    1     1     1       0.00000000
    2     1     2       0.00002034

    
-------------------------------------------------------

  
  &error iter 582       
-------------------------------------------------------
  Energy   MaxStDev:          0.0000    
  Gradient MaxStDev:          0.0000    
  Nac      MaxStDev:          0.0000    
  Soc      MaxStDev:          0.0000    
-------------------------------------------------------

  Iter:      583  Ekin =           0.1437295484193001 au T =  2017.17 K dt =         20 CI:   2
  Root chosen for geometry opt   1

  Gnuplot:           0.9998984154590289           0.0001015845376143        -302.8406655884570569        -302.6459163880851406        -302.8406655884570569
  **
  **
  **
  A surface hopping is not allowed
  **
  At state:   1


  &surface hopping information
-------------------------------------------------------

    Random number:             0.14380831
    Accumulated probability:   0.00003293
    state mult  level   probability 
    1     1     1       0.00000000
    2     1     2       0.00003293

    
-------------------------------------------------------

  
  &error iter 583       
-------------------------------------------------------
  Energy   MaxStDev:          0.0000    
  Gradient MaxStDev:          0.0000    
  Nac      MaxStDev:          0.0000    
  Soc      MaxStDev:          0.0000    
-------------------------------------------------------

  Iter:      584  Ekin =           0.1457180581619848 au T =  2045.07 K dt =         20 CI:   2
  Root chosen for geometry opt   1

  Gnuplot:           0.9998989165032981           0.0001010834952486        -302.8420448854785150        -302.6303262859975121        -302.8420448854785150
  **
  **
  **
  A surface hopping is not allowed
  **
  At state:   1


  &surface hopping information
-------------------------------------------------------

    Random number:             0.18075359
    Accumulated probability:   0.00003382
    state mult  level   probability 
    1     1     1       0.00000000
    2     1     2       0.00003382

    
-------------------------------------------------------

  
  &error iter 584       
-------------------------------------------------------
  Energy   MaxStDev:          0.0000    
  Gradient MaxStDev:          0.0000    
  Nac      MaxStDev:          0.0000    
  Soc      MaxStDev:          0.0000    
-------------------------------------------------------

  Iter:      585  Ekin =           0.1591548861144335 au T =  2233.65 K dt =         20 CI:   2
  Root chosen for geometry opt   1

  Gnuplot:           0.9999821240380697           0.0000178759610650        -302.8557825852425935        -302.6337957487759809        -302.8557825852425935
  **
  **
  **
  A surface hopping is not allowed
  **
  At state:   1


  &surface hopping information
-------------------------------------------------------

    Random number:             0.84951073
    Accumulated probability:   0.00001235
    state mult  level   probability 
    1     1     1       0.00000000
    2     1     2       0.00001235

    
-------------------------------------------------------

  
  &error iter 585       
-------------------------------------------------------
  Energy   MaxStDev:          0.0000    
  Gradient MaxStDev:          0.0000    
  Nac      MaxStDev:          0.0000    
  Soc      MaxStDev:          0.0000    
-------------------------------------------------------

  Iter:      586  Ekin =           0.1821458539885443 au T =  2556.32 K dt =         20 CI:   2
  Root chosen for geometry opt   1

  Gnuplot:           0.9978662440553308           0.0021337559243185        -302.8796850244488041        -302.6513968737249911        -302.8796850244488041
  **
  **
  **
  A surface hopping is not allowed
  **
  At state:   1


  &surface hopping information
-------------------------------------------------------

    Random number:             0.87629592
    Accumulated probability:   0.00115315
    state mult  level   probability 
    1     1     1       0.00000000
    2     1     2       0.00115315

    
-------------------------------------------------------

  
  &error iter 586       
-------------------------------------------------------
  Energy   MaxStDev:          0.0000    
  Gradient MaxStDev:          0.0000    
  Nac      MaxStDev:          0.0000    
  Soc      MaxStDev:          0.0000    
-------------------------------------------------------

  Iter:      587  Ekin =           0.2035578863978846 au T =  2856.82 K dt =         20 CI:   2
  Root chosen for geometry opt   1

  Gnuplot:           0.9999446489273396           0.0000553510736867        -302.9012524070771519        -302.6648937661164496        -302.9012524070771519
  **
  **
  **
  A surface hopping is not allowed
  **
  At state:   1


  &surface hopping information
-------------------------------------------------------

    Random number:             0.46281633
    Accumulated probability:   0.00001654
    state mult  level   probability 
    1     1     1       0.00000000
    2     1     2       0.00001654

    
-------------------------------------------------------

  
  &error iter 587       
-------------------------------------------------------
  Energy   MaxStDev:          0.0000    
  Gradient MaxStDev:          0.0000    
  Nac      MaxStDev:          0.0000    
  Soc      MaxStDev:          0.0000    
-------------------------------------------------------

  Iter:      588  Ekin =           0.2252250302015327 au T =  3160.91 K dt =         20 CI:   2
  Root chosen for geometry opt   1

  Gnuplot:           0.9986407647375017           0.0013592353053424        -302.9200557594133443        -302.6629197156896112        -302.9200557594133443
  **
  **
  **
  A surface hopping is not allowed
  **
  At state:   1


  &surface hopping information
-------------------------------------------------------

    Random number:             0.23981702
    Accumulated probability:   0.00090875
    state mult  level   probability 
    1     1     1       0.00000000
    2     1     2       0.00090875

    
-------------------------------------------------------

  
  &error iter 588       
-------------------------------------------------------
  Energy   MaxStDev:          0.0000    
  Gradient MaxStDev:          0.0000    
  Nac      MaxStDev:          0.0000    
  Soc      MaxStDev:          0.0000    
-------------------------------------------------------

  Iter:      589  Ekin =           0.2658068318793081 au T =  3730.45 K dt =         20 CI:   2
  Root chosen for geometry opt   1

  Gnuplot:           0.9944111881777644           0.0055888118152289        -302.9611131956846179        -302.6024432526921828        -302.9611131956846179
  **
  **
  **
  A surface hopping is not allowed
  **
  At state:   1


  &surface hopping information
-------------------------------------------------------

    Random number:             0.85750967
    Accumulated probability:   0.00622174
    state mult  level   probability 
    1     1     1       0.00000000
    2     1     2       0.00622174

    
-------------------------------------------------------

  
  &error iter 589       
-------------------------------------------------------
  Energy   MaxStDev:          0.0000    
  Gradient MaxStDev:          0.0000    
  Nac      MaxStDev:          0.0000    
  Soc      MaxStDev:          0.0000    
-------------------------------------------------------

  Iter:      590  Ekin =           0.3352483559428747 au T =  4705.03 K dt =         20 CI:   2
  Root chosen for geometry opt   1

  Gnuplot:           0.9805709663778543           0.0194290330561411        -303.0350193578316293        -302.6385753077046843        -303.0350193578316293
  **
  **
  **
  A surface hopping is not allowed
  **
  At state:   1


  &surface hopping information
-------------------------------------------------------

    Random number:             0.51544559
    Accumulated probability:   0.02575506
    state mult  level   probability 
    1     1     1       0.00000000
    2     1     2       0.02575506

    
-------------------------------------------------------

  
  &error iter 590       
-------------------------------------------------------
  Energy   MaxStDev:          0.0000    
  Gradient MaxStDev:          0.0000    
  Nac      MaxStDev:          0.0000    
  Soc      MaxStDev:          0.0000    
-------------------------------------------------------

  Iter:      591  Ekin =           0.3862733477627731 au T =  5421.13 K dt =         20 CI:   2
  Root chosen for geometry opt   1

  Gnuplot:           0.9549896642565727           0.0450103355483571        -303.0861810130244294        -302.6015572172144061        -303.0861810130244294
  **
  **
  **
  A surface hopping is not allowed
  **
  At state:   1


  &surface hopping information
-------------------------------------------------------

    Random number:             0.73893690
    Accumulated probability:   0.09096862
    state mult  level   probability 
    1     1     1       0.00000000
    2     1     2       0.09096862

    
-------------------------------------------------------

  
  &error iter 591       
-------------------------------------------------------
  Energy   MaxStDev:          0.0000    
  Gradient MaxStDev:          0.0000    
  Nac      MaxStDev:          0.0000    
  Soc      MaxStDev:          0.0000    
-------------------------------------------------------

  Iter:      592  Ekin =           0.4690526977281445 au T =  6582.90 K dt =         20 CI:   2
  Root chosen for geometry opt   1

  Gnuplot:           0.9937995793297887           0.0062004205882320        -303.1523210086962195        -302.3625177137203650        -303.1523210086962195
  **
  **
  **
  A surface hopping is not allowed
  **
  At state:   1


  &surface hopping information
-------------------------------------------------------

    Random number:             0.03032207
    Accumulated probability:   0.08770061
    state mult  level   probability 
    1     1     1       0.00000000
    2     1     2       0.08770060

    
-------------------------------------------------------

  
  &error iter 592       
-------------------------------------------------------
  Energy   MaxStDev:          0.0000    
  Gradient MaxStDev:          0.0000    
  Nac      MaxStDev:          0.0000    
  Soc      MaxStDev:          0.0000    
-------------------------------------------------------

  Iter:      593  Ekin =           0.5878338475894809 au T =  8249.93 K dt =         20 CI:   2
  Root chosen for geometry opt   1

  Gnuplot:           0.9917420484125614           0.0082579520224116        -303.2378367571963054        -302.0168494118868239        -303.2378367571963054
  **
  **
  **
  A surface hopping is not allowed
  **
  At state:   1


  &surface hopping information
-------------------------------------------------------

    Random number:             0.16114849
    Accumulated probability:   0.17751826
    state mult  level   probability 
    1     1     1       0.00000000
    2     1     2       0.17751826

    
-------------------------------------------------------

  
  &error iter 593       
-------------------------------------------------------
  Energy   MaxStDev:          0.0000    
  Gradient MaxStDev:          0.0000    
  Nac      MaxStDev:          0.0000    
  Soc      MaxStDev:          0.0000    
-------------------------------------------------------

  Iter:      594  Ekin =           0.6153851878957767 au T =  8636.59 K dt =         20 CI:   2
  Root chosen for geometry opt   1

  Gnuplot:           0.9986524796113372           0.0013475203871500        -303.2546999010015156        -301.8670360225407876        -303.2546999010015156
  **
  **
  **
  A surface hopping is not allowed
  **
  At state:   1


  &surface hopping information
-------------------------------------------------------

    Random number:             0.04811924
    Accumulated probability:   0.06819823
    state mult  level   probability 
    1     1     1       0.00000000
    2     1     2       0.06819823

    
-------------------------------------------------------

  
  &error iter 594       
-------------------------------------------------------
  Energy   MaxStDev:          0.0000    
  Gradient MaxStDev:          0.0000    
  Nac      MaxStDev:          0.0000    
  Soc      MaxStDev:          0.0000    
-------------------------------------------------------

  Iter:      595  Ekin =           0.5617074027794230 au T =  7883.25 K dt =         20 CI:   2
  Root chosen for geometry opt   1

  Gnuplot:           0.9936209162697196           0.0063790839345292        -303.1838558612518568        -301.7509066951036516        -303.1838558612518568
  **
  **
  **
  A surface hopping is not allowed
  **
  At state:   1


  &surface hopping information
-------------------------------------------------------

    Random number:             0.19991629
    Accumulated probability:   0.21042548
    state mult  level   probability 
    1     1     1       0.00000000
    2     1     2       0.21042548

    
-------------------------------------------------------

  
  &error iter 595       
-------------------------------------------------------
  Energy   MaxStDev:          0.0000    
  Gradient MaxStDev:          0.0000    
  Nac      MaxStDev:          0.0000    
  Soc      MaxStDev:          0.0000    
-------------------------------------------------------

  Iter:      596  Ekin =           0.6701953624895851 au T =  9405.82 K dt =         20 CI:   2
  Root chosen for geometry opt   1

  Gnuplot:                          nan                          nan        -303.2540607568316773        -300.9205214579901622        -303.2540607568316773
  **
  **
  **
  A surface hopping is not allowed
  **
  At state:   1


  &surface hopping information
-------------------------------------------------------

    Random number:             0.52271152
    Accumulated probability: 142.26504517
    state mult  level   probability 
    1     1     1       0.00000000
    2     1     2     142.26504434

    
-------------------------------------------------------

  
  &error iter 596       
-------------------------------------------------------
  Energy   MaxStDev:          0.0000    
  Gradient MaxStDev:          0.0000    
  Nac      MaxStDev:          0.0000    
  Soc      MaxStDev:          0.0000    
-------------------------------------------------------

Trajectory terminated because the state population is nan.
Nonadiabatic Molecular Dynamics End:  2026-02-25 10:49:13 Total:     0 days     0 hours     2 minutes    17 seconds
