15
Properties=species:S:1:pos:R:3:nac:R:3:force_0:R:3:force_1:R:3 energy_0=-8240.48854785721 energy_1=-8238.956752529642 pbc="F F F"
C        1.19730063      -0.75425745       0.35690589       0.26569997      -0.11742373      -0.39876420       4.38215303       0.27071711      -2.13065183       4.56191025       0.24200831      -2.09149037
C        1.30742628       0.81950210       0.34677564       0.02356677       0.01209662       0.02809788      -8.71257905      -2.15742839       1.75595053      -9.00940160      -2.18425849       1.49342620
C        0.28132470       1.30835367      -0.78764719       0.15793000       0.01234828       0.06389742       1.84013312      -4.33308956       0.57798648       2.03493291      -4.45404998       0.39008440
C       -0.14391755      -1.04539345      -0.32035308       1.25316693      -0.32833196       1.46090673      -0.21769370      -3.62438369       5.11384604      -1.39174069      -5.15126962       6.15516495
C       -0.27201544      -0.07045580      -1.39115495      -0.27638529      -0.19194261       0.17549572      -2.06166667       2.10691973      -2.25213117      -2.25177245       2.66779286      -2.45892918
N       -1.55117013       0.41557378       1.23910586       0.76331185      -0.48044474       1.70052820       1.06724886      -0.48413044      -1.49957657      -0.30794277      -0.61447939       0.30933692
N       -1.19143723      -0.57756964       0.65596647      -2.23536957       1.21475598      -3.09196188      -2.31102158      -1.28800365       2.52761164       0.46276323       0.18588844      -0.25868823
H       -1.41871382      -0.02747315      -1.69740067      -0.01500510      -0.02622026       0.03059471       2.91048465       0.02980440       0.01324667       2.97867399       0.00418762       0.07219560
H        0.40801270      -0.45785225      -2.15495341      -0.03656673      -0.04668281       0.04909086      -0.50525973       0.69783668      -0.75673207      -0.49291316       0.62123145      -0.54334288
H       -0.36113903      -2.30329919      -0.27883505       0.00390108      -0.03902441       0.00656109       0.63232023       4.33050919      -1.50461619       0.68329807       4.20819961      -1.40982975
H       -0.26723169       2.19929797      -0.65998107      -0.01637760      -0.01020972       0.02618024      -0.75568175       0.71204111      -0.13900290      -0.79020778       0.72227051      -0.14401028
H        0.72198144       1.01847320       1.35609653      -0.07502271       0.00866451      -0.04020584       2.85009543       1.01620050      -2.00184423       2.64181136       0.97008374      -1.76061871
H        1.59228496      -1.12905136       1.36792103      -0.00915520      -0.00123814       0.00957794      -1.71759423      -0.00101005      -1.56717808      -1.73126483       0.01876036      -1.58931537
H        2.07688535      -1.12082630      -0.41800438       0.20426238      -0.00442142       0.01949754      -2.42840888       0.52829123       1.87141988      -2.42151628       0.52206462       1.83101852
H        2.23420719       1.00093757       0.08748486      -0.00795676      -0.00192560      -0.03949641       5.02747029       2.19572583      -0.00832820       5.03336974       2.24156995       0.00499817
15
Properties=species:S:1:pos:R:3:nac:R:3:force_0:R:3:force_1:R:3 energy_0=-8240.613942550968 energy_1=-8239.074796611632 pbc="F F F"
C        1.19544037      -0.75250809       0.35037822       0.27192055      -0.12519194      -0.41081938       4.29030073       0.30856990      -1.43729572       4.46609611       0.28731117      -1.36482159
C        1.30809128       0.81786864       0.34680968       0.01410350       0.00858732       0.02524524      -8.40593653      -1.98974073       1.37116886      -8.68552009      -2.01200996       1.10948306
C        0.28894443       1.31657982      -0.79616644       0.15399953       0.00966254       0.06413374       2.54981322      -5.55498102       0.43933813       2.71996233      -5.67030362       0.26455363
C       -0.14165760      -1.04361103      -0.31970296       1.26075127      -0.32822698       1.47334124      -0.31416197      -3.56011159       5.01827354      -1.55621246      -5.10412281       6.06330476
C       -0.26949709      -0.07440895      -1.39707216      -0.27743383      -0.19039504       0.17973206      -2.08754137       2.24250118      -2.05959340      -2.27498232       2.83121613      -2.27399488
N       -1.55808497       0.40684533       1.24820866       0.78198871      -0.49302483       1.73624199       0.93380815       0.06397202      -1.19700087      -0.50889152      -0.03644484       0.60313716
N       -1.19591237      -0.57323627       0.66185411      -2.25765580       1.23383156      -3.13980461      -2.05837990      -1.88594657       2.06979363       0.85894296      -0.47175090      -0.74020518
H       -1.41838866      -0.02258190      -1.69432375      -0.01641576      -0.02782580       0.03148240       2.91812390      -0.01997647      -0.02919700       2.98643724      -0.04804254       0.03044084
H        0.40333560      -0.47430693      -2.16050278      -0.03616860      -0.04460175       0.04930181      -0.49242978       0.73815254      -0.76656761      -0.48373013       0.66222502      -0.54697072
H       -0.34621661      -2.30401540      -0.28309791       0.00225958      -0.03891966       0.00710086       0.51666031       4.35593533      -1.43469857       0.56971907       4.24576017      -1.34291813
H       -0.25415828       2.18235208      -0.67417473      -0.01367534      -0.01111656       0.02422341      -1.37115865       1.71224768       0.01679926      -1.40494671       1.72004264       0.01211504
H        0.74001927       1.02123961       1.34321594      -0.07267834       0.00799807      -0.03761802       2.50214725       0.99630330      -1.71015786       2.30999472       0.95505539      -1.48318945
H        1.58258313      -1.12172866       1.38500854      -0.00892004       0.00047082       0.01114623      -1.74885303       0.06103382      -1.98270277      -1.76452753       0.08145504      -2.01031844
H        2.05565357      -1.11074506      -0.41422488       0.20415177      -0.00273913       0.02363567      -2.13145708       0.38180037       1.71913630      -2.13809437       0.37426606       1.67461578
H        2.24824375       0.99753075       0.13377235      -0.00622720       0.00149138      -0.03734263       4.89906475       2.15024024      -0.01729592       4.90575271       2.18534303       0.00476814
15
Properties=species:S:1:pos:R:3:nac:R:3:force_0:R:3:force_1:R:3 energy_0=-8240.902084736268 energy_1=-8239.358140341083 pbc="F F F"
C        1.19447697      -0.75070104       0.34357647       0.28210350      -0.13375380      -0.42420056       3.96227556       0.43247556      -0.72891011       4.13514099       0.42163443      -0.62154035
C        1.30701211       0.81583113       0.34706652       0.00421740       0.00441596       0.02223550      -6.96472055      -1.64024224       0.69136650      -7.22624480      -1.65863587       0.43276898
C        0.29711038       1.32366728      -0.80463256       0.14902091       0.00701434       0.06630021       3.13482288      -6.55866204       0.32341924       3.28472204      -6.66564328       0.15718166
C       -0.13971017      -1.04285357      -0.31783524       1.26919831      -0.33109676       1.48332892      -0.37371581      -3.31302433       4.79657156      -1.67995815      -4.87994367       5.85418873
C       -0.26743558      -0.07779356      -1.40344601      -0.27921222      -0.18895380       0.18599729      -1.96659052       2.30335915      -1.78267106      -2.15205556       2.91421383      -2.00251661
N       -1.56508745       0.39811061       1.25741531       0.80131802      -0.50641132       1.76791327       0.78986870       0.62614299      -0.87603651      -0.71535534       0.54607006       0.91610787
N       -1.20023961      -0.56898413       0.66761428      -2.28369625       1.25248695      -3.18493861      -1.80698888      -2.49997346       1.61052766       1.24381978      -1.13050330      -1.22441828
H       -1.41091747      -0.01780560      -1.69117399      -0.01796384      -0.02892947       0.03170469       2.77514275      -0.05261850      -0.10057140       2.84204399      -0.08276065      -0.04059983
H        0.39750101      -0.48917702      -2.16736095      -0.03597870      -0.04273152       0.04959219      -0.47042512       0.76758033      -0.76431750      -0.46503777       0.69177680      -0.53933381
H       -0.32993095      -2.29457223      -0.29057414       0.00011831      -0.03565583       0.00763797       0.37671307       4.24629636      -1.34289160       0.43358956       4.15079730      -1.25905784
H       -0.24444667       2.16952196      -0.68833940      -0.01067366      -0.01147616       0.02124274      -1.88761396       2.53456259       0.14845806      -1.92152638       2.54000228       0.14406288
H        0.76358451       1.02629130       1.32678633      -0.06874338       0.00772162      -0.03488199       2.01908776       0.99199541      -1.25404092       1.84303936       0.95514301      -1.03960132
H        1.56865908      -1.11421105       1.39728570      -0.00866985       0.00213803       0.01252850      -1.70819975       0.08208431      -2.25893622      -1.72574726       0.10271473      -2.29254515
H        2.02930570      -1.09976827      -0.40643831       0.20279441       0.00008827       0.02998470      -1.68105563       0.18233618       1.43702176      -1.70022841       0.17415346       1.38636432
H        2.27401895       0.99935308       0.18007125      -0.00383297       0.00514350      -0.03444480       3.80139951       1.89768771       0.10101055       3.80379794       1.92098088       0.12893874
15
Properties=species:S:1:pos:R:3:nac:R:3:force_0:R:3:force_1:R:3 energy_0=-8241.276753415439 energy_1=-8239.732068598434 pbc="F F F"
C        1.19434396      -0.74880932       0.33664990       0.29627438      -0.14309124      -0.43767746       3.36273548       0.65702976       0.04857869       3.53231099       0.65872455       0.19122429
C        1.30448181       0.81346055       0.34741027      -0.00533828      -0.00008687       0.01953014      -4.78373494      -1.20189973      -0.12754979      -5.02648299      -1.21674936      -0.38053953
C        0.30593594       1.32941620      -0.81306711       0.14290496       0.00478011       0.06993368       3.45232982      -7.13718628       0.25845940       3.58554053      -7.23402005       0.09657624
C       -0.13810009      -1.04307608      -0.31479192       1.27810789      -0.33869650       1.49078766      -0.39462321      -2.86086386       4.45792800      -1.76150957      -4.45222262       5.53387385
C       -0.26580624      -0.08059295      -1.41022200      -0.28212969      -0.18657492       0.19354459      -1.68492349       2.29207226      -1.42450230      -1.86819166       2.91874368      -1.64791534
N       -1.57221310       0.38946992       1.26677971       0.82173657      -0.52204637       1.79516955       0.64306814       1.17818025      -0.54875133      -0.92011673       1.10928739       1.23297145
N       -1.20435266      -0.56492666       0.67316361      -2.31240882       1.27338677      -3.22734406      -1.56315830      -3.10922547       1.15841174       1.61133227      -1.77027005      -1.69682659
H       -1.39664575      -0.01322734      -1.68812138      -0.01971758      -0.02957664       0.03128972       2.46990646      -0.06489761      -0.20086364       2.53375672      -0.09637670      -0.14082093
H        0.39055367      -0.50239181      -2.17550966      -0.03565796      -0.04107837       0.05040747      -0.43965750       0.78599432      -0.74989862      -0.43679312       0.71000329      -0.52070166
H       -0.31260778      -2.27519691      -0.30106308      -0.00247998      -0.03021678       0.00853980       0.21023303       3.97641047      -1.23001948       0.27247543       3.89535083      -1.15821629
H       -0.23933295       2.16276963      -0.70215935      -0.00758496      -0.01095194       0.01766322      -2.16665892       2.97433601       0.22731036      -2.20159906       2.97744850       0.22381195
H        0.79155984       1.03362849       1.30786913      -0.06357367       0.00768156      -0.03253807       1.40618244       1.01723047      -0.61163829       1.24625498       0.98419534      -0.40828849
H        1.55060561      -1.10644767       1.40407720      -0.00867210       0.00387674       0.01361611      -1.60324738       0.06834046      -2.40596074      -1.62256885       0.08881806      -2.44568928
H        1.99888946      -1.08837476      -0.39533441       0.20046355       0.00421949       0.03804179      -1.03668174      -0.08651424       0.98519100      -1.06710003      -0.09514114       0.92641929
H        2.30889599       1.00577200       0.22667867      -0.00192432       0.00837494      -0.03096413       2.12823009       1.51099318       0.16330501       2.12269110       1.52220829       0.19412104
15
Properties=species:S:1:pos:R:3:nac:R:3:force_0:R:3:force_1:R:3 energy_0=-8241.633021755231 energy_1=-8240.09271987621 pbc="F F F"
C        1.19492029      -0.74678532       0.32976174       0.31273693      -0.15266797      -0.45044563       2.46579247       0.99587076       0.94215251       2.63045676       1.01088934       1.11902071
C        1.30094213       0.81084563       0.34767760      -0.01362362      -0.00457552       0.01737507      -2.39744873      -0.78242443      -0.98240284      -2.61988660      -0.79395560      -1.22857950
C        0.31548152       1.33371242      -0.82148227       0.13541085       0.00252685       0.07487820       3.40830050      -7.16122137       0.25590746       3.52663405      -7.24767018       0.09526760
C       -0.13684375      -1.04419266      -0.31063732       1.28649718      -0.35077612       1.49550050      -0.37073472      -2.15655878       4.02019378      -1.79639579      -3.76937833       5.11572632
C       -0.26455206      -0.08280623      -1.41732892      -0.28640022      -0.18276531       0.20242460      -1.22405874       2.21290753      -0.99465600      -1.40312675       2.84852115      -1.21865352
N       -1.57949719       0.38102025       1.27635643       0.84269170      -0.54033943       1.81647572       0.50444370       1.69012791      -0.23266037      -1.11294231       1.62388818       1.53436356
N       -1.20818825      -0.56117403       0.67842075      -2.34128250       1.29763132      -3.26506199      -1.33681154      -3.68640974       0.72792350       1.95228750      -2.36490701      -2.13819974
H       -1.37631119      -0.00887969      -1.68540574      -0.02128658      -0.02955178       0.03013658       1.98216031      -0.05285625      -0.33142512       2.04174151      -0.08453215      -0.27162958
H        0.38256116      -0.51390767      -2.18490432      -0.03517614      -0.03981094       0.05205067      -0.40014645       0.79328091      -0.72303005      -0.39881441       0.71740672      -0.49079991
H       -0.29463263      -2.24650068      -0.31432343      -0.00531078      -0.02402306       0.00984056       0.01282929       3.49279447      -1.09914707       0.08216706       3.42334381      -1.04276245
H       -0.23948728       2.16314183      -0.71544375      -0.00451131      -0.00955558       0.01326651      -2.11057075       2.90670285       0.24019413      -2.14735622       2.90740215       0.23834818
H        0.82251724       1.04332070       1.28797497      -0.05805751       0.00792864      -0.03019413       0.69261399       1.08462059       0.21076861       0.54857766       1.05499494       0.40440939
H        1.52866962      -1.09847175       1.40501657      -0.00882654       0.00553185       0.01415232      -1.44177766       0.02415083      -2.42997317      -1.46268776       0.04430208      -2.47562313
H        1.96591985      -1.07720891      -0.38201375       0.19751301       0.00928653       0.04705745      -0.16561035      -0.44030404       0.32555152      -0.20593566      -0.44939637       0.25710257
H        2.34885227       1.01583330       0.27375060      -0.00037448       0.01116054      -0.02745644       0.38101868       1.07931876       0.07060311       0.36528094       1.07909127       0.10200949
15
Properties=species:S:1:pos:R:3:nac:R:3:force_0:R:3:force_1:R:3 energy_0=-8241.873292309278 energy_1=-8240.343448854444 pbc="F F F"
C        1.19602485      -0.74455831       0.32309829       0.33007120      -0.16211401      -0.46128256       1.28166195       1.45154583       1.95750115       1.43903810       1.47975888       2.16627918
C        1.29687633       0.80807127       0.34769821      -0.02041164      -0.00879874       0.01584759      -0.21228571      -0.44765372      -1.82083136      -0.41302813      -0.45589973      -2.05954883
C        0.32573530       1.33655322      -0.82987830       0.12671462       0.00043927       0.08055471       3.00480309      -6.66765530       0.30603354       3.10934114      -6.74351912       0.14429877
C       -0.13594815      -1.04606617      -0.30545541       1.29352698      -0.36772640       1.49760810      -0.29961863      -1.11879356       3.50707246      -1.78308446      -2.74751452       4.62037245
C       -0.26357964      -0.08444748      -1.42468055      -0.29226698      -0.17692004       0.21261267      -0.55965712       2.07606647      -0.49778882      -0.73228965       2.71414622      -0.71972159
N       -1.58697294       0.37285020       1.28619736       0.86344521      -0.56171965       1.83074530       0.38386950       2.13284868       0.05519616      -1.28596674       2.06469414       1.80254476
N       -1.21168765      -0.55782863       0.68330970      -2.36801386       1.32646195      -3.29674706      -1.13512400      -4.20580331       0.33020329       2.26166543      -2.89417688      -2.53318493
H       -1.35109108      -0.00473432      -1.68334005      -0.02243228      -0.02881745       0.02828408       1.29026108      -0.01243952      -0.49462938       1.34445808      -0.04299429      -0.43578442
H        0.37361436      -0.52370691      -2.19547338      -0.03436729      -0.03905452       0.05477961      -0.35169665       0.78953078      -0.68431655      -0.35055914       0.71394813      -0.45131106
H       -0.27646087      -2.20961297      -0.33007894      -0.00799762      -0.01807281       0.01148325      -0.22049538       2.71059869      -0.95848490      -0.14217648       2.64867840      -0.92055380
H       -0.24477987       2.17047095      -0.72815784      -0.00161928      -0.00743480       0.00827104      -1.71997170       2.36194130       0.19729146      -1.75898231       2.36020077       0.19783489
H        0.85478730       1.05553732       1.26904849      -0.05262878       0.00839859      -0.02789968      -0.05943914       1.19460425       1.15056140      -0.18795343       1.16823218       1.33555493
H        1.50323366      -1.09038983       1.40003220      -0.00917626       0.00705739       0.01392617      -1.22883305      -0.05001448      -2.32848811      -1.25093519      -0.03038427      -2.37942623
H        1.93245746      -1.06711838      -0.36807788       0.19442019       0.01490106       0.05602034       0.92425750      -0.88344957      -0.54804514       0.87507087      -0.89351340      -0.62655069
H        2.38968260       1.02847668       0.32106662       0.00073578       0.01340016      -0.02420358      -1.09773174       0.66867345      -0.17127520      -1.12459810       0.65834349      -0.14080341
15
Properties=species:S:1:pos:R:3:nac:R:3:force_0:R:3:force_1:R:3 energy_0=-8241.931456103153 energy_1=-8240.418855143214 pbc="F F F"
C        1.19741838      -0.74203415       0.31686985       0.34665398      -0.17102573      -0.46883391      -0.09258301       1.99096154       3.01316107       0.05429500       2.03068453       3.25007697
C        1.29272760       0.80520536       0.34730524      -0.02575551      -0.01244294       0.01477420       1.54491987      -0.19917516      -2.55118425       1.36721129      -0.20407105      -2.78253840
C        0.33661348       1.33803982      -0.83824536       0.11716035      -0.00120320       0.08639002       2.34472483      -5.82765814       0.38070208       2.43590522      -5.89381252       0.21664811
C       -0.13541062      -1.04849143      -0.29934567       1.29848156      -0.38948882       1.49747272      -0.18057520       0.34811537       2.95626321      -1.72112907      -1.28888926       4.08133509
C       -0.26275427      -0.08554369      -1.43217672      -0.29975004      -0.16869703       0.22404262       0.31539496       1.89298731       0.05386176       0.15183629       2.52782243      -0.16379040
N       -1.59467012       0.36503569       1.29634869       0.88304240      -0.58628134       1.83692164       0.29232424       2.47694734       0.29511424      -1.42759363       2.40387265       2.01515440
N       -1.21479760      -0.55498160       0.68776244      -2.39056175       1.36055115      -3.32076207      -0.96794828      -4.63992468      -0.01902647       2.52953720      -3.33355075      -2.85997626
H       -1.32265391      -0.00069182      -1.68231712      -0.02299589      -0.02739164       0.02579179       0.38628971       0.05972820      -0.69001938       0.43461142       0.03161026      -0.63253607
H        0.36382872      -0.53179779      -2.20712235      -0.03317017      -0.03890402       0.05867215      -0.29414227       0.77515638      -0.63450738      -0.29156529       0.70005404      -0.40314899
H       -0.25862930      -2.16638742      -0.34803718      -0.01001207      -0.01318573       0.01325063      -0.49144502       1.52727645      -0.82818812      -0.40227538       1.46909521      -0.81120890
H       -0.25428140       2.18344763      -0.74039853       0.00097021      -0.00492311       0.00295116      -1.09242440       1.50580995       0.12515874      -1.13363367       1.50157098       0.12877110
H        0.88660762       1.07054933       1.25331776      -0.04753060       0.00905277      -0.02569415      -0.75462265       1.32217544       2.06188986      -0.86872270       1.29917436       2.23881962
H        1.47480443      -1.08238061       1.38935427      -0.00972863       0.00844665       0.01276674      -0.96966811      -0.15557508      -2.09195516      -0.99270750      -0.13642568      -2.14702713
H        1.90108896      -1.05916589      -0.35564124       0.19166716       0.02042179       0.06356732       2.14051186      -1.38848239      -1.56632269       2.08294717      -1.39993664      -1.65422557
H        2.42782196       1.04269537       0.36804572       0.00152898       0.01507120      -0.02131087      -2.18075653       0.31165749      -0.50494752      -2.21871635       0.29280143      -0.47635357
15
Properties=species:S:1:pos:R:3:nac:R:3:force_0:R:3:force_1:R:3 energy_0=-8241.795041614307 energy_1=-8240.306797021969 pbc="F F F"
C        1.19882282      -0.73910220       0.31129408       0.36083396      -0.17865007      -0.47195050      -1.43749665       2.52493525       3.89896058      -1.30477156       2.57372726       4.15947556
C        1.28885342       0.80229847       0.34635350      -0.02992654      -0.01525107       0.01379284       2.78322321       0.02593119      -3.01020400       2.62930196       0.02430765      -3.23512776
C        0.34798082       1.33834287      -0.84656891       0.10724728      -0.00219328       0.09184874       1.57190644      -4.85773492       0.45132429       1.64991123      -4.91543657       0.28466665
C       -0.13521872      -1.05117551      -0.29241635       1.30098195      -0.41540908       1.49556094      -0.02184744       2.31347358       2.42184050      -1.61767939       0.67464815       3.54853112
C       -0.26189842      -0.08613228      -1.43970578      -0.30857277      -0.15795736       0.23655637       1.36917803       1.67929939       0.64060720       1.21703387       2.30632738       0.42873265
N       -1.60261313       0.35763512       1.30684702       0.90060723      -0.61375572       1.83385338       0.23949152       2.69887973       0.46937501      -1.52637033       2.61750372       2.15196506
N       -1.21747198      -0.55270860       0.69172270      -2.40738395       1.39967792      -3.33500747      -0.84414380      -4.96514244      -0.30544421       2.74467912      -3.66021516      -3.09832954
H       -1.29317680       0.00342632      -1.68280775      -0.02292633      -0.02534188       0.02280206      -0.69893962       0.16355438      -0.90967370      -0.65640382       0.13900491      -0.85415394
H        0.35334542      -0.53821356      -2.21973599      -0.03150329      -0.03943291       0.06364941      -0.22740322       0.75025307      -0.57477020      -0.22176509       0.67594207      -0.34791809
H       -0.24176032      -2.11964658      -0.36793650      -0.01081897      -0.00997210       0.01474651      -0.79255525      -0.13408452      -0.74562345      -0.69105822      -0.19107996      -0.75137054
H       -0.26649552       2.20001731      -0.75233110       0.00317548      -0.00241746      -0.00238478      -0.36717637       0.54683087       0.05142026      -0.41024655       0.54041064       0.05846397
H        0.91634923       1.08867003       1.24294415      -0.04287412       0.00975423      -0.02361202      -1.28884610       1.40789662       2.72974966      -1.38984185       1.38868905       2.89896260
H        1.44399981      -1.07469784       1.37353886      -0.01049229       0.00968461       0.01043181      -0.67056317      -0.29603401      -1.70476817      -0.69421279      -0.27719733      -1.76250056
H        1.87470461      -1.05456320      -0.34716288       0.18942593       0.02509176       0.06847740       3.26998396      -1.87434009      -2.54086532       3.20449445      -1.88727213      -2.63597151
H        2.46065231       1.05761468       0.41388498       0.00222643       0.01617241      -0.01876470      -2.88481152       0.01628190      -0.87192846      -2.93307102      -0.00935967      -0.84542568
15
Properties=species:S:1:pos:R:3:nac:R:3:force_0:R:3:force_1:R:3 energy_0=-8241.515374687366 energy_1=-8240.058503462802 pbc="F F F"
C        1.19996525      -0.73565342       0.30655359       0.37147424      -0.18415648      -0.46976383      -2.44313681       2.91166919       4.30398624      -2.32798762       2.96685591       4.58291698
C        1.28550724       0.79939646       0.34475210      -0.03334669      -0.01702715       0.01256769       3.50874851       0.32506016      -3.02369993       3.37875930       0.32623726      -3.24452888
C        0.35967949       1.33765883      -0.85483529       0.09759072      -0.00240563       0.09651004       0.81135800      -3.92887811       0.49884201       0.87608031      -3.98025966       0.33077054
C       -0.13535166      -1.05372412      -0.28477443       1.30130126      -0.44447328       1.49215007       0.15090284       4.71768210       1.96668336      -1.49479433       3.08127484       3.08079933
C       -0.26079817      -0.08625773      -1.44714874      -0.31835196      -0.14477555       0.24980751       2.49781311       1.45638583       1.22849715       2.35944432       2.07224945       1.02248632
N       -1.61081898       0.35068528       1.31771592       0.91564295      -0.64352400       1.82042423       0.23192996       2.78322153       0.56354412      -1.57230197       2.68887387       2.19642948
N       -1.21967372      -0.55106588       0.69514943      -2.41816399       1.44283637      -3.33701906      -0.76957351      -5.16223984      -0.51550621       2.89547076      -3.85495475      -3.23009343
H       -1.26527034       0.00787707      -1.68534222      -0.02225346      -0.02279336       0.01954149      -1.86549048       0.29176480      -1.13196344      -1.82811671       0.27166609      -1.07900974
H        0.34233147      -0.54301192      -2.23318214      -0.02934890      -0.04069481       0.06954142      -0.15162148       0.71490245      -0.50696080      -0.14160120       0.64196708      -0.28738458
H       -0.22654492      -2.07336296      -0.38963372      -0.01000997      -0.00878325       0.01544891      -1.09956786      -2.22773280      -0.75992724      -0.98540556      -2.28329318      -0.78852108
H       -0.27969129       2.21788010      -0.76412377       0.00492789      -0.00023440      -0.00742058       0.33558984      -0.34915186      -0.00651666       0.29133482      -0.35739267       0.00396649
H        0.94276518       1.11011364       1.23950727      -0.03858531       0.01034651      -0.02183415      -1.59494939       1.37265449       2.95047762      -1.68427190       1.35783518       3.11230809
H        1.41153407      -1.06767835       1.35350610      -0.01146239       0.01078078       0.00682030      -0.34040153      -0.47538807      -1.15153409      -0.36445615      -0.45663496      -1.21040670
H        1.85598806      -1.05447643      -0.34499195       0.18765160       0.02816511       0.06970032       4.01498825      -2.20770634      -3.18371781       3.94166933      -2.22143704      -3.28239830
H        2.48646432       1.07251159       0.45770129       0.00293401       0.01673913      -0.01647437      -3.28658943      -0.22224353      -1.23220432      -3.34382340      -0.25298741      -1.20733451
15
Properties=species:S:1:pos:R:3:nac:R:3:force_0:R:3:force_1:R:3 energy_0=-8241.191564633316 energy_1=-8239.772334919346 pbc="F F F"
C        1.20064018      -0.73160884       0.30273341       0.37801426      -0.18678458      -0.46192636      -2.85188057       3.01600321       3.96691624      -2.75726273       3.07450675       4.25924192
C        1.28283956       0.79655996       0.34249916      -0.03628975      -0.01760635       0.01078392       3.81037486       0.77595353      -2.52750115       3.70335682       0.77936393      -2.74466504
C        0.37155408       1.33617549      -0.86303525       0.08868825      -0.00185689       0.10010008       0.13839327      -3.13607830       0.51948582       0.19037376      -3.18236929       0.35007481