Nonadiabatic Molecular Dynamics Start:  2026-02-25 10:46:56


  -------------------------------------------------------------------
                              /\
   |\    /|                  /++\
   ||\  /||                 /++++\
   || \/ || ||             /++++++\
   ||    || ||            /PyRAI2MD\
   ||    || ||           /++++++++++\                    __
            ||          /++++++++++++\    |\ |  /\  |\/| | \
            ||__ __    *==============*   | \| /--\ |  | |_/

                          Python Rapid
                     Artificial Intelligence
                  Ab Initio Molecular Dynamics



                      Author @Jingbai Li
                      
                      
    2022 – present   Hoffmann Institute of Advanced Materials
                     Shenzhen Polytechnic, Shenzhen, China    
                                
    2019 – 2022      Department of Chemistry and Chemical Biology
                     Northeastern University, Boston, USA

                          version:   2.5.1

  With contributions from (in alphabetic order):
    Jingbai Li     - Fewest switches surface hopping
                     Zhu-Nakamura surface hopping
                     Velocity Verlet
                     OpenMolcas interface
                     OpenMolcas/Tinker interface
                     BAGEL interface
                     ORCA interface
                     OpenQP interface
                     GFN-xTB interface
                     Adaptive sampling
                     Grid search
                     Multilayer ONIOM (QM:QM' and QM:QM':MM)
                     Periodic boundary condition
                     Wall potential
                     QC/ML hybrid NAMD
                     Excited-State Neural Network Potentials (ESNNP)

    Patrick Reiser - Fully connected neural networks (pyNNsMD)
                     SchNet (pyNNsMD)

  Special acknowledgement to:
    Steven A. Lopez            - Project co-founder
    Pascal Friederich          - Project co-founder




  &control
-------------------------------------------------------
  Title:                      dbh-9     
  NPROCS for ML:              1         
  NPROCS for QC:              1         
  NPROCS for Multiscale:      1          
  Seed:                       1         
  Job: 	                      md        
  QM:          	       	      nequip    
  Ab initio:                  molcas    
-------------------------------------------------------

        
  &molecule
-------------------------------------------------------
  States:                     [2]       
  Spin:                       [0]       
  Interstates:                [[1, 2]]  
  QMMM keyfile:               None      
  QMMM xyzfile:               Input     
  High level region:          []         ...
  Middel level region:        []         ...
  Boundary:                   []         ...
  Embedding charges:          False     
  Reading charge:             False     
  Frozen atoms:               []        
  Constrained atoms:          []        
  Restrained bonds:           []        
  Restrained angles:          []        
  Restrained dihedrals:       []        
  Restrained bond value:      []        
  Restrained angle value:     []        
  Restrained dihedral value:  []        
  Bond potential scale:       10.0      
  Angle potential scale:      0.005     
  Dihedral potential scale:   1e-06     
  External potential shape:   ['ellipsoid']
  External potential radius:  []        
  External potential factor:  [40]      
  External potential scale:   [1.0]       
  Compress potential volume:  []        
  Potential center:           []        
  Potential center type:      xyz       
  Constrained groups          []        
  Track geometry type:        None      
  Track indices:              []        
  Track threshold:            []        
  Track stop task:            0         
  Lattice vectors:            []        
  Lattice constant:           []        
  Periodic boundary condition []        
-------------------------------------------------------

        
  &initial condition
-------------------------------------------------------
  Generate initial condition: 0         
  Number:                     5000      
  Method:                     wigner     
  Format:                     molden    
-------------------------------------------------------

        
  &md
-------------------------------------------------------
  Initial state:              2         
  Initialize random velocity  0         
  Temperature (K):            300       
  Step:                       2000      
  Dt (au):                    20.67     
  Only active state grad      0         
  Surface hopping:            fssh      
  NAC type:                   nac       
  Phase correction            1         
  Population reset            0         
  Substep:                    20        
  Integrate probability       0         
  Decoherence:                0.1       
  Adjust velocity:            2         
  Reflect velocity:           1         
  Maxhop:                     10        
  IC hopping gap threshold    0.5       
  ISC hopping gap threshold   0.5       
  Thermodynamic:              off       
  Thermodynamic delay:        200       
  Print level:                0         
  Direct output:              2000      
  Buffer output:              0         
  Record MD data:             1         
  Record MD steps:            0         
  Checkpoint steps:           1          
  Restart function:           0         
  Additional steps:           0         
-------------------------------------------------------

        
  &md velocity control
-------------------------------------------------------
  Excess kinetic energy       0         
  Scale kinetic energy        1         
  Target kinetic energy       0         
  Gradient descent path       0         
  Reset velocity:             0         
  Reset step:                 0         
-------------------------------------------------------

        
  &nequip
-------------------------------------------------------
  Train data:                 None      
  Prediction data:            None      
  Train mode:                 training  
  Silent mode:                1         
  Data splits:                10        
  NN EG type:                 1         
  NN NAC type:                0         
  NN SOC type:                0         
  Multiscale:                 []        
  Shuffle data:               False     
  EG unit:                    si        
  NAC unit:                   si        
  SOC unit:                   cm-1
  Select EG output:           []        
  Select NAC output:          []        
  Select SOC output:          []          
  Data permutation            No        
  Elements                              
-------------------------------------------------------

        

  NequIP-NAC (Energy + Gradient + NAC)

  &hyperparameters            Energy+Gradient      Nonadiabatic         Spin-orbit
----------------------------------------------------------------------------------------------
  Model type:                 NequIPeg            NequIPnac           n/a          
  Model path:                 dbh-9.nequip.pth     dbh-9.nequip.pth     n/a                 
  GPU:                        1                    1                    n/a                 
  Chemical symbols:           auto                 auto                 n/a                 
----------------------------------------------------------------------------------------------
        


 *---------------------------------------------------*
 |                                                   |
 |          Nonadiabatic Molecular Dynamics          |
 |                                                   |
 *---------------------------------------------------*


  State order:         1   2
  Multiplicity:        1   1

  QMMM key:         None
  QMMM xyz          Input
  Active atoms:     15
  Inactive atoms:   0
  Link atoms:       0
  Highlevel atoms:  15
  Midlevel atoms:   0
  Lowlevel atoms:   0
  
  Lattice vector:   None
  Periodic X/Y/Z:   None

  Iter:        1  Ekin =           0.0685373304271684 au T =   961.88 K dt =         20 CI:   2
  Root chosen for geometry opt   2

  Gnuplot:           0.0000000000000000           1.0000000000000000        -302.9110151957902417        -302.7516644096324967        -302.7516644096324967
  **
  **
  **
  A surface hopping is not allowed
  **
  At state:   2


  &surface hopping information
-------------------------------------------------------
  No surface hopping is performed
-------------------------------------------------------

  
  &error iter 1         
-------------------------------------------------------
  Energy   MaxStDev:          0.0000    
  Gradient MaxStDev:          0.0000    
  Nac      MaxStDev:          0.0000    
  Soc      MaxStDev:          0.0000    
-------------------------------------------------------

  Iter:        2  Ekin =           0.0646341137751954 au T =   907.10 K dt =         20 CI:   2
  Root chosen for geometry opt   2

  Gnuplot:           0.0000000000000000           1.0000000000000000        -302.9061038695131174        -302.7476984815610876        -302.7476984815610876
  **
  **
  **
  A surface hopping is not allowed
  **
  At state:   2


  &surface hopping information
-------------------------------------------------------
  No surface hopping is performed
-------------------------------------------------------

  
  &error iter 2         
-------------------------------------------------------
  Energy   MaxStDev:          0.0000    
  Gradient MaxStDev:          0.0000    
  Nac      MaxStDev:          0.0000    
  Soc      MaxStDev:          0.0000    
-------------------------------------------------------

  Iter:        3  Ekin =           0.0653036040582912 au T =   916.50 K dt =         20 CI:   2
  Root chosen for geometry opt   2

  Gnuplot:           0.0000000000000000           1.0000000000000000        -302.9059958197813671        -302.7484004856521551        -302.7484004856521551
  **
  **
  **
  A surface hopping is not allowed
  **
  At state:   2


  &surface hopping information
-------------------------------------------------------
  No surface hopping is performed
-------------------------------------------------------

  
  &error iter 3         
-------------------------------------------------------
  Energy   MaxStDev:          0.0000    
  Gradient MaxStDev:          0.0000    
  Nac      MaxStDev:          0.0000    
  Soc      MaxStDev:          0.0000    
-------------------------------------------------------

  Iter:        4  Ekin =           0.0701671413363129 au T =   984.76 K dt =         20 CI:   2
  Root chosen for geometry opt   2

  Gnuplot:           0.0000049029558378           0.9999950970441205        -302.9105065628983766        -302.7533441512235868        -302.7533441512235868
  **
  **
  **
  A surface hopping is not allowed
  **
  At state:   2


  &surface hopping information
-------------------------------------------------------

    Random number:             0.53182757
    Accumulated probability:   0.00000051
    state mult  level   probability 
    1     1     1       0.00000051
    2     1     2       0.00000000

    
-------------------------------------------------------

  
  &error iter 4         
-------------------------------------------------------
  Energy   MaxStDev:          0.0000    
  Gradient MaxStDev:          0.0000    
  Nac      MaxStDev:          0.0000    
  Soc      MaxStDev:          0.0000    
-------------------------------------------------------

  Iter:        5  Ekin =           0.0779677885583306 au T =  1094.24 K dt =         20 CI:   2
  Root chosen for geometry opt   2

  Gnuplot:           0.0000016901120136           0.9999983098880421        -302.9183189271813603        -302.7612627357420934        -302.7612627357420934
  **
  **
  **
  A surface hopping is not allowed
  **
  At state:   2


  &surface hopping information
-------------------------------------------------------

    Random number:             0.50183666
    Accumulated probability:   0.00000032
    state mult  level   probability 
    1     1     1       0.00000032
    2     1     2       0.00000000

    
-------------------------------------------------------

  
  &error iter 5         
-------------------------------------------------------
  Energy   MaxStDev:          0.0000    
  Gradient MaxStDev:          0.0000    
  Nac      MaxStDev:          0.0000    
  Soc      MaxStDev:          0.0000    
-------------------------------------------------------

  Iter:        6  Ekin =           0.0868175304446710 au T =  1218.44 K dt =         20 CI:   2
  Root chosen for geometry opt   2

  Gnuplot:           0.0000020641355799           0.9999979358644850        -302.9272479071393604        -302.7702785834372321        -302.7702785834372321
  **
  **
  **
  A surface hopping is not allowed
  **
  At state:   2


  &surface hopping information
-------------------------------------------------------

    Random number:             0.51042235
    Accumulated probability:   0.00000033
    state mult  level   probability 
    1     1     1       0.00000033
    2     1     2       0.00000000

    
-------------------------------------------------------

  
  &error iter 6         
-------------------------------------------------------
  Energy   MaxStDev:          0.0000    
  Gradient MaxStDev:          0.0000    
  Nac      MaxStDev:          0.0000    
  Soc      MaxStDev:          0.0000    
-------------------------------------------------------

  Iter:        7  Ekin =           0.0942508854780461 au T =  1322.76 K dt =         20 CI:   2
  Root chosen for geometry opt   2

  Gnuplot:           0.0000018255399495           0.9999981744600746        -302.9344828667852312        -302.7779003859097884        -302.7779003859097884
  **
  **
  **
  A surface hopping is not allowed
  **
  At state:   2


  &surface hopping information
-------------------------------------------------------

    Random number:             0.69552952
    Accumulated probability:   0.00000035
    state mult  level   probability 
    1     1     1       0.00000035
    2     1     2       0.00000000

    
-------------------------------------------------------

  
  &error iter 7         
-------------------------------------------------------
  Energy   MaxStDev:          0.0000    
  Gradient MaxStDev:          0.0000    
  Nac      MaxStDev:          0.0000    
  Soc      MaxStDev:          0.0000    
-------------------------------------------------------

  Iter:        8  Ekin =           0.0977145701484632 au T =  1371.37 K dt =         20 CI:   2
  Root chosen for geometry opt   2

  Gnuplot:           0.0000020648412847           0.9999979351587172        -302.9373093297203354        -302.7814996109126469        -302.7814996109126469
  **
  **
  **
  A surface hopping is not allowed
  **
  At state:   2


  &surface hopping information
-------------------------------------------------------

    Random number:             0.34345600
    Accumulated probability:   0.00000040
    state mult  level   probability 
    1     1     1       0.00000040
    2     1     2       0.00000000

    
-------------------------------------------------------

  
  &error iter 8         
-------------------------------------------------------
  Energy   MaxStDev:          0.0000    
  Gradient MaxStDev:          0.0000    
  Nac      MaxStDev:          0.0000    
  Soc      MaxStDev:          0.0000    
-------------------------------------------------------

  Iter:        9  Ekin =           0.0956982785548309 au T =  1343.07 K dt =         20 CI:   2
  Root chosen for geometry opt   2

  Gnuplot:           0.0000022900959141           0.9999977099041644        -302.9342080453773747        -302.7794578737299958        -302.7794578737299958
  **
  **
  **
  A surface hopping is not allowed
  **
  At state:   2


  &surface hopping information
-------------------------------------------------------

    Random number:             0.98834544
    Accumulated probability:   0.00000043
    state mult  level   probability 
    1     1     1       0.00000043
    2     1     2       0.00000000

    
-------------------------------------------------------

  
  &error iter 9         
-------------------------------------------------------
  Energy   MaxStDev:          0.0000    
  Gradient MaxStDev:          0.0000    
  Nac      MaxStDev:          0.0000    
  Soc      MaxStDev:          0.0000    
-------------------------------------------------------

  Iter:       10  Ekin =           0.0887155449109106 au T =  1245.07 K dt =         20 CI:   2
  Root chosen for geometry opt   2

  Gnuplot:           0.0000023305949168           0.9999976694050474        -302.9257186582221948        -302.7723606657160644        -302.7723606657160644
  **
  **
  **
  A surface hopping is not allowed
  **
  At state:   2


  &surface hopping information
-------------------------------------------------------

    Random number:             0.54776359
    Accumulated probability:   0.00000039
    state mult  level   probability 
    1     1     1       0.00000039
    2     1     2       0.00000000

    
-------------------------------------------------------

  
  &error iter 10        
-------------------------------------------------------
  Energy   MaxStDev:          0.0000    
  Gradient MaxStDev:          0.0000    
  Nac      MaxStDev:          0.0000    
  Soc      MaxStDev:          0.0000    
-------------------------------------------------------

  Iter:       11  Ekin =           0.0787086567350237 au T =  1104.63 K dt =         20 CI:   2
  Root chosen for geometry opt   2

  Gnuplot:           0.0000022219118964           0.9999977780880727        -302.9140242158300680        -302.7622256578968631        -302.7622256578968631
  **
  **
  **
  A surface hopping is not allowed
  **
  At state:   2


  &surface hopping information
-------------------------------------------------------

    Random number:             0.44032788
    Accumulated probability:   0.00000033
    state mult  level   probability 
    1     1     1       0.00000033
    2     1     2       0.00000000

    
-------------------------------------------------------

  
  &error iter 11        
-------------------------------------------------------
  Energy   MaxStDev:          0.0000    
  Gradient MaxStDev:          0.0000    
  Nac      MaxStDev:          0.0000    
  Soc      MaxStDev:          0.0000    
-------------------------------------------------------

  Iter:       12  Ekin =           0.0683363686309433 au T =   959.06 K dt =         20 CI:   2
  Root chosen for geometry opt   2

  Gnuplot:           0.0000017905717450           0.9999982094282132        -302.9022781964256410        -302.7516357738999204        -302.7516357738999204
  **
  **
  **
  A surface hopping is not allowed
  **
  At state:   2


  &surface hopping information
-------------------------------------------------------

    Random number:             0.42430687
    Accumulated probability:   0.00000021
    state mult  level   probability 
    1     1     1       0.00000021
    2     1     2       0.00000000

    
-------------------------------------------------------

  
  &error iter 12        
-------------------------------------------------------
  Energy   MaxStDev:          0.0000    
  Gradient MaxStDev:          0.0000    
  Nac      MaxStDev:          0.0000    
  Soc      MaxStDev:          0.0000    
-------------------------------------------------------

  Iter:       13  Ekin =           0.0611843754536874 au T =   858.69 K dt =         20 CI:   2
  Root chosen for geometry opt   2

  Gnuplot:           0.0000011631945267           0.9999988368055028        -302.8944847799959348        -302.7442709794294160        -302.7442709794294160
  **
  **
  **
  A surface hopping is not allowed
  **
  At state:   2


  &surface hopping information
-------------------------------------------------------

    Random number:             0.12175436
    Accumulated probability:   0.00000012
    state mult  level   probability 
    1     1     1       0.00000012
    2     1     2       0.00000000

    
-------------------------------------------------------

  
  &error iter 13        
-------------------------------------------------------
  Energy   MaxStDev:          0.0000    
  Gradient MaxStDev:          0.0000    
  Nac      MaxStDev:          0.0000    
  Soc      MaxStDev:          0.0000    
-------------------------------------------------------

  Iter:       14  Ekin =           0.0601585905671144 au T =   844.29 K dt =         20 CI:   2
  Root chosen for geometry opt   2

  Gnuplot:           0.0000008477422182           0.9999991522577716        -302.8933157551578574        -302.7432919417763060        -302.7432919417763060
  **
  **
  **
  A surface hopping is not allowed
  **
  At state:   2


  &surface hopping information
-------------------------------------------------------

    Random number:             0.18690374
    Accumulated probability:   0.00000010
    state mult  level   probability 
    1     1     1       0.00000010
    2     1     2       0.00000000

    
-------------------------------------------------------

  
  &error iter 14        
-------------------------------------------------------
  Energy   MaxStDev:          0.0000    
  Gradient MaxStDev:          0.0000    
  Nac      MaxStDev:          0.0000    
  Soc      MaxStDev:          0.0000    
-------------------------------------------------------

  Iter:       15  Ekin =           0.0647019153052093 au T =   908.06 K dt =         20 CI:   2
  Root chosen for geometry opt   2

  Gnuplot:           0.0000007872705667           0.9999992127294490        -302.8981483139935449        -302.7480724840422681        -302.7480724840422681
  **
  **
  **
  A surface hopping is not allowed
  **
  At state:   2


  &surface hopping information
-------------------------------------------------------

    Random number:             0.62630934
    Accumulated probability:   0.00000011
    state mult  level   probability 
    1     1     1       0.00000011
    2     1     2       0.00000000

    
-------------------------------------------------------

  
  &error iter 15        
-------------------------------------------------------
  Energy   MaxStDev:          0.0000    
  Gradient MaxStDev:          0.0000    
  Nac      MaxStDev:          0.0000    
  Soc      MaxStDev:          0.0000    
-------------------------------------------------------

  Iter:       16  Ekin =           0.0714447569176798 au T =  1002.69 K dt =         20 CI:   2
  Root chosen for geometry opt   2

  Gnuplot:           0.0000006331769324           0.9999993668230900        -302.9055256122510968        -302.7549944968729960        -302.7549944968729960
  **
  **
  **
  A surface hopping is not allowed
  **
  At state:   2


  &surface hopping information
-------------------------------------------------------

    Random number:             0.26690581
    Accumulated probability:   0.00000008
    state mult  level   probability 
    1     1     1       0.00000008
    2     1     2       0.00000000

    
-------------------------------------------------------

  
  &error iter 16        
-------------------------------------------------------
  Energy   MaxStDev:          0.0000    
  Gradient MaxStDev:          0.0000    
  Nac      MaxStDev:          0.0000    
  Soc      MaxStDev:          0.0000    
-------------------------------------------------------

  Iter:       17  Ekin =           0.0771018991313804 au T =  1082.08 K dt =         20 CI:   2
  Root chosen for geometry opt   2

  Gnuplot:           0.0000003267283841           0.9999996732716170        -302.9113765244856609        -302.7607578679666744        -302.7607578679666744
  **
  **
  **
  A surface hopping is not allowed
  **
  At state:   2


  &surface hopping information
-------------------------------------------------------

    Random number:             0.02619660
    Accumulated probability:   0.00000003
    state mult  level   probability 
    1     1     1       0.00000003
    2     1     2       0.00000000

    
-------------------------------------------------------

  
  &error iter 17        
-------------------------------------------------------
  Energy   MaxStDev:          0.0000    
  Gradient MaxStDev:          0.0000    
  Nac      MaxStDev:          0.0000    
  Soc      MaxStDev:          0.0000    
-------------------------------------------------------

  Iter:       18  Ekin =           0.0794310362582032 au T =  1114.77 K dt =         20 CI:   2
  Root chosen for geometry opt   2

  Gnuplot:           0.0000000599754438           0.9999999400245585        -302.9130355637672096        -302.7631519257762989        -302.7631519257762989
  **
  **
  **
  A surface hopping is not allowed
  **
  At state:   2


  &surface hopping information
-------------------------------------------------------

    Random number:             0.59648693
    Accumulated probability:   0.00000000
    state mult  level   probability 
    1     1     1       0.00000000
    2     1     2       0.00000000

    
-------------------------------------------------------

  
  &error iter 18        
-------------------------------------------------------
  Energy   MaxStDev:          0.0000    
  Gradient MaxStDev:          0.0000    
  Nac      MaxStDev:          0.0000    
  Soc      MaxStDev:          0.0000    
-------------------------------------------------------

  Iter:       19  Ekin =           0.0771326335544092 au T =  1082.51 K dt =         20 CI:   2
  Root chosen for geometry opt   2

  Gnuplot:           0.0000000233723540           0.9999999766276453        -302.9094116835194086        -302.7608317295315032        -302.7608317295315032
  **
  **
  **
  A surface hopping is not allowed
  **
  At state:   2


  &surface hopping information
-------------------------------------------------------

    Random number:             0.50056142
    Accumulated probability:   0.00000001
    state mult  level   probability 
    1     1     1       0.00000001
    2     1     2       0.00000000

    
-------------------------------------------------------

  
  &error iter 19        
-------------------------------------------------------
  Energy   MaxStDev:          0.0000    
  Gradient MaxStDev:          0.0000    
  Nac      MaxStDev:          0.0000    
  Soc      MaxStDev:          0.0000    
-------------------------------------------------------

  Iter:       20  Ekin =           0.0703734668379275 au T =   987.65 K dt =         20 CI:   2
  Root chosen for geometry opt   2

  Gnuplot:           0.0000001437675132           0.9999998562324919        -302.9010109275930631        -302.7539189081277300        -302.7539189081277300
  **
  **
  **
  A surface hopping is not allowed
  **
  At state:   2


  &surface hopping information
-------------------------------------------------------

    Random number:             0.24221981
    Accumulated probability:   0.00000003
    state mult  level   probability 
    1     1     1       0.00000003
    2     1     2       0.00000000

    
-------------------------------------------------------

  
  &error iter 20        
-------------------------------------------------------
  Energy   MaxStDev:          0.0000    
  Gradient MaxStDev:          0.0000    
  Nac      MaxStDev:          0.0000    
  Soc      MaxStDev:          0.0000    
-------------------------------------------------------

  Iter:       21  Ekin =           0.0611788283081586 au T =   858.61 K dt =         20 CI:   2
  Root chosen for geometry opt   2

  Gnuplot:           0.0000002702294154           0.9999997297705931        -302.8901556666212400        -302.7444990911826039        -302.7444990911826039
  **
  **
  **
  A surface hopping is not allowed
  **
  At state:   2


  &surface hopping information
-------------------------------------------------------

    Random number:             0.36418745
    Accumulated probability:   0.00000004
    state mult  level   probability 
    1     1     1       0.00000004
    2     1     2       0.00000000

    
-------------------------------------------------------

  
  &error iter 21        
-------------------------------------------------------
  Energy   MaxStDev:          0.0000    
  Gradient MaxStDev:          0.0000    
  Nac      MaxStDev:          0.0000    
  Soc      MaxStDev:          0.0000    
-------------------------------------------------------

  Iter:       22  Ekin =           0.0525973775081748 au T =   738.18 K dt =         20 CI:   2
  Root chosen for geometry opt   2

  Gnuplot:           0.0000003429178739           0.9999996570821281        -302.8801766227724670        -302.7357396999094021        -302.7357396999094021
  **
  **
  **
  A surface hopping is not allowed
  **
  At state:   2


  &surface hopping information
-------------------------------------------------------

    Random number:             0.23747823
    Accumulated probability:   0.00000004
    state mult  level   probability 
    1     1     1       0.00000004
    2     1     2       0.00000000

    
-------------------------------------------------------

  
  &error iter 22        
-------------------------------------------------------
  Energy   MaxStDev:          0.0000    
  Gradient MaxStDev:          0.0000    
  Nac      MaxStDev:          0.0000    
  Soc      MaxStDev:          0.0000    
-------------------------------------------------------

  Iter:       23  Ekin =           0.0473120687514784 au T =   664.00 K dt =         20 CI:   2
  Root chosen for geometry opt   2

  Gnuplot:           0.0000004127082342           0.9999995872917680        -302.8740828107409016        -302.7303506757154992        -302.7303506757154992
  **
  **
  **
  A surface hopping is not allowed
  **
  At state:   2


  &surface hopping information
-------------------------------------------------------

    Random number:             0.84575248
    Accumulated probability:   0.00000005
    state mult  level   probability 
    1     1     1       0.00000005
    2     1     2       0.00000000

    
-------------------------------------------------------

  
  &error iter 23        
-------------------------------------------------------
  Energy   MaxStDev:          0.0000    
  Gradient MaxStDev:          0.0000    
  Nac      MaxStDev:          0.0000    
  Soc      MaxStDev:          0.0000    
-------------------------------------------------------

  Iter:       24  Ekin =           0.0470119055036919 au T =   659.79 K dt =         20 CI:   2
  Root chosen for geometry opt   2

  Gnuplot:           0.0000005756483062           0.9999994243516994        -302.8737874974152078        -302.7300135583171254        -302.7300135583171254
  **
  **
  **
  A surface hopping is not allowed
  **
  At state:   2


  &surface hopping information
-------------------------------------------------------

    Random number:             0.86335337
    Accumulated probability:   0.00000007
    state mult  level   probability 
    1     1     1       0.00000007
    2     1     2       0.00000000

    
-------------------------------------------------------

  
  &error iter 24        
-------------------------------------------------------
  Energy   MaxStDev:          0.0000    
  Gradient MaxStDev:          0.0000    
  Nac      MaxStDev:          0.0000    
  Soc      MaxStDev:          0.0000    
-------------------------------------------------------

  Iter:       25  Ekin =           0.0522409866863811 au T =   733.17 K dt =         20 CI:   2
  Root chosen for geometry opt   2

  Gnuplot:           0.0000008432371948           0.9999991567627831        -302.8796487998999396        -302.7353015625243984        -302.7353015625243984
  **
  **
  **
  A surface hopping is not allowed
  **
  At state:   2


  &surface hopping information
-------------------------------------------------------

    Random number:             0.44169739
    Accumulated probability:   0.00000012
    state mult  level   probability 
    1     1     1       0.00000012
    2     1     2       0.00000000

    
-------------------------------------------------------

  
  &error iter 25        
-------------------------------------------------------
  Energy   MaxStDev:          0.0000    
  Gradient MaxStDev:          0.0000    
  Nac      MaxStDev:          0.0000    
  Soc      MaxStDev:          0.0000    
-------------------------------------------------------

  Iter:       26  Ekin =           0.0620569336376637 au T =   870.93 K dt =         20 CI:   2
  Root chosen for geometry opt   2

  Gnuplot:           0.0000011371584849           0.9999988628414940        -302.8902237589716151        -302.7452902859783990        -302.7452902859783990
  **
  **
  **
  A surface hopping is not allowed
  **
  At state:   2


  &surface hopping information
-------------------------------------------------------

    Random number:             0.92455190
    Accumulated probability:   0.00000017
    state mult  level   probability 
    1     1     1       0.00000017
    2     1     2       0.00000000

    
-------------------------------------------------------

  
  &error iter 26        
-------------------------------------------------------
  Energy   MaxStDev:          0.0000    
  Gradient MaxStDev:          0.0000    
  Nac      MaxStDev:          0.0000    
  Soc      MaxStDev:          0.0000    
-------------------------------------------------------

  Iter:       27  Ekin =           0.0738834199332988 au T =  1036.91 K dt =         20 CI:   2
  Root chosen for geometry opt   2

  Gnuplot:           0.0000013769787279           0.9999986230212699        -302.9025536307602238        -302.7573664774731128        -302.7573664774731128
  **
  **
  **
  A surface hopping is not allowed
  **
  At state:   2


  &surface hopping information
-------------------------------------------------------

    Random number:             0.23008996
    Accumulated probability:   0.00000022
    state mult  level   probability 
    1     1     1       0.00000022
    2     1     2       0.00000000

    
-------------------------------------------------------

  
  &error iter 27        
-------------------------------------------------------
  Energy   MaxStDev:          0.0000    
  Gradient MaxStDev:          0.0000    
  Nac      MaxStDev:          0.0000    
  Soc      MaxStDev:          0.0000    
-------------------------------------------------------

  Iter:       28  Ekin =           0.0840840848549780 au T =  1180.07 K dt =         20 CI:   2
  Root chosen for geometry opt   2

  Gnuplot:           0.0000015023573998           0.9999984976426504        -302.9129639342660880        -302.7678156447367428        -302.7678156447367428
  **
  **
  **
  A surface hopping is not allowed
  **
  At state:   2


  &surface hopping information
-------------------------------------------------------

    Random number:             0.74461544
    Accumulated probability:   0.00000025
    state mult  level   probability 
    1     1     1       0.00000025
    2     1     2       0.00000000

    
-------------------------------------------------------

  
  &error iter 28        
-------------------------------------------------------
  Energy   MaxStDev:          0.0000    
  Gradient MaxStDev:          0.0000    
  Nac      MaxStDev:          0.0000    
  Soc      MaxStDev:          0.0000    
-------------------------------------------------------

  Iter:       29  Ekin =           0.0891929204891208 au T =  1251.77 K dt =         20 CI:   2
  Root chosen for geometry opt   2

  Gnuplot:           0.0000014359238358           0.9999985640761224        -302.9180710619240244        -302.7730695643964509        -302.7730695643964509
  **
  **
  **
  A surface hopping is not allowed
  **
  At state:   2


  &surface hopping information
-------------------------------------------------------

    Random number:             0.47777805
    Accumulated probability:   0.00000023
    state mult  level   probability 
    1     1     1       0.00000023
    2     1     2       0.00000000

    
-------------------------------------------------------

  
  &error iter 29        
-------------------------------------------------------
  Energy   MaxStDev:          0.0000    
  Gradient MaxStDev:          0.0000    
  Nac      MaxStDev:          0.0000    
  Soc      MaxStDev:          0.0000    
-------------------------------------------------------

  Iter:       30  Ekin =           0.0874123291484779 au T =  1226.78 K dt =         20 CI:   2
  Root chosen for geometry opt   2

  Gnuplot:           0.0000012027289152           0.9999987972711324        -302.9160245230028750        -302.7712487886164467        -302.7712487886164467
  **
  **
  **
  A surface hopping is not allowed
  **
  At state:   2


  &surface hopping information
-------------------------------------------------------

    Random number:             0.67112660
    Accumulated probability:   0.00000018
    state mult  level   probability 
    1     1     1       0.00000018
    2     1     2       0.00000000

    
-------------------------------------------------------

  
  &error iter 30        
-------------------------------------------------------
  Energy   MaxStDev:          0.0000    
  Gradient MaxStDev:          0.0000    
  Nac      MaxStDev:          0.0000    
  Soc      MaxStDev:          0.0000    
-------------------------------------------------------

  Iter:       31  Ekin =           0.0797390323191039 au T =  1119.09 K dt =         20 CI:   2
  Root chosen for geometry opt   2

  Gnuplot:           0.0000009316718762           0.9999990683281226        -302.9077104000908207        -302.7633347248495852        -302.7633347248495852
  **
  **
  **
  A surface hopping is not allowed
  **
  At state:   2


  &surface hopping information
-------------------------------------------------------

    Random number:             0.24862377
    Accumulated probability:   0.00000012
    state mult  level   probability 
    1     1     1       0.00000012
    2     1     2       0.00000000

    
-------------------------------------------------------

  
  &error iter 31        
-------------------------------------------------------
  Energy   MaxStDev:          0.0000    
  Gradient MaxStDev:          0.0000    
  Nac      MaxStDev:          0.0000    
  Soc      MaxStDev:          0.0000    
-------------------------------------------------------

  Iter:       32  Ekin =           0.0699858123534823 au T =   982.21 K dt =         20 CI:   2
  Root chosen for geometry opt   2

  Gnuplot:           0.0000006494614329           0.9999993505385874        -302.8970314096285961        -302.7532431091333933        -302.7532431091333933
  **
  **
  **
  A surface hopping is not allowed
  **
  At state:   2


  &surface hopping information
-------------------------------------------------------

    Random number:             0.95631200
    Accumulated probability:   0.00000007
    state mult  level   probability 
    1     1     1       0.00000007
    2     1     2       0.00000000

    
-------------------------------------------------------

  
  &error iter 32        
-------------------------------------------------------
  Energy   MaxStDev:          0.0000    
  Gradient MaxStDev:          0.0000    
  Nac      MaxStDev:          0.0000    
  Soc      MaxStDev:          0.0000    
-------------------------------------------------------

  Iter:       33  Ekin =           0.0633286497503673 au T =   888.78 K dt =         20 CI:   2
  Root chosen for geometry opt   2

  Gnuplot:           0.0000004016129162           0.9999995983870917        -302.8896284535506425        -302.7463169685819366        -302.7463169685819366
  **
  **
  **
  A surface hopping is not allowed
  **
  At state:   2


  &surface hopping information
-------------------------------------------------------

    Random number:             0.03191799
    Accumulated probability:   0.00000004
    state mult  level   probability 
    1     1     1       0.00000004
    2     1     2       0.00000000

    
-------------------------------------------------------

  
  &error iter 33        
-------------------------------------------------------
  Energy   MaxStDev:          0.0000    
  Gradient MaxStDev:          0.0000    
  Nac      MaxStDev:          0.0000    
  Soc      MaxStDev:          0.0000    
-------------------------------------------------------

  Iter:       34  Ekin =           0.0637398878674784 au T =   894.55 K dt =         20 CI:   2
  Root chosen for geometry opt   2

  Gnuplot:           0.0000002600331428           0.9999997399668530        -302.8899860907186508        -302.7467230591824432        -302.7467230591824432
  **
  **
  **
  A surface hopping is not allowed
  **
  At state:   2


  &surface hopping information
-------------------------------------------------------

    Random number:             0.16200083
    Accumulated probability:   0.00000003
    state mult  level   probability 
    1     1     1       0.00000003
    2     1     2       0.00000000

    
-------------------------------------------------------

  
  &error iter 34        
-------------------------------------------------------
  Energy   MaxStDev:          0.0000    
  Gradient MaxStDev:          0.0000    
  Nac      MaxStDev:          0.0000    
  Soc      MaxStDev:          0.0000    
-------------------------------------------------------

  Iter:       35  Ekin =           0.0713123037188745 au T =  1000.83 K dt =         20 CI:   2
  Root chosen for geometry opt   2

  Gnuplot:           0.0000001972056004           0.9999998027944059        -302.8980277489064292        -302.7546047366175230        -302.7546047366175230
  **
  **
  **
  A surface hopping is not allowed
  **
  At state:   2


  &surface hopping information
-------------------------------------------------------

    Random number:             0.19600947
    Accumulated probability:   0.00000003
    state mult  level   probability 
    1     1     1       0.00000003
    2     1     2       0.00000000

    
-------------------------------------------------------

  
  &error iter 35        
-------------------------------------------------------
  Energy   MaxStDev:          0.0000    
  Gradient MaxStDev:          0.0000    
  Nac      MaxStDev:          0.0000    
  Soc      MaxStDev:          0.0000    
-------------------------------------------------------

  Iter:       36  Ekin =           0.0819360006053827 au T =  1149.93 K dt =         20 CI:   2
  Root chosen for geometry opt   2

  Gnuplot:           0.0000001823304891           0.9999998176695044        -302.9090671832812518        -302.7655722382158388        -302.7655722382158388
  **
  **
  **
  A surface hopping is not allowed
  **
  At state:   2


  &surface hopping information
-------------------------------------------------------

    Random number:             0.81031483
    Accumulated probability:   0.00000003
    state mult  level   probability 
    1     1     1       0.00000003
    2     1     2       0.00000000

    
-------------------------------------------------------

  
  &error iter 36        
-------------------------------------------------------
  Energy   MaxStDev:          0.0000    
  Gradient MaxStDev:          0.0000    
  Nac      MaxStDev:          0.0000    
  Soc      MaxStDev:          0.0000    
-------------------------------------------------------

  Iter:       37  Ekin =           0.0907171913037442 au T =  1273.17 K dt =         20 CI:   2
  Root chosen for geometry opt   2

  Gnuplot:           0.0000001897206575           0.9999998102793484        -302.9177489159749825        -302.7744694677401185        -302.7744694677401185
  **
  **
  **
  A surface hopping is not allowed
  **
  At state:   2


  &surface hopping information
-------------------------------------------------------

    Random number:             0.44046199
    Accumulated probability:   0.00000003
    state mult  level   probability 
    1     1     1       0.00000003
    2     1     2       0.00000000

    
-------------------------------------------------------

  
  &error iter 37        
-------------------------------------------------------
  Energy   MaxStDev:          0.0000    
  Gradient MaxStDev:          0.0000    
  Nac      MaxStDev:          0.0000    
  Soc      MaxStDev:          0.0000    
-------------------------------------------------------

  Iter:       38  Ekin =           0.0952073512639487 au T =  1336.18 K dt =         20 CI:   2
  Root chosen for geometry opt   2

  Gnuplot:           0.0000001814229615           0.9999998185770380        -302.9216324598589836        -302.7789466475309155        -302.7789466475309155
  **
  **
  **
  A surface hopping is not allowed
  **
  At state:   2


  &surface hopping information
-------------------------------------------------------

    Random number:             0.84750229
    Accumulated probability:   0.00000003
    state mult  level   probability 
    1     1     1       0.00000003
    2     1     2       0.00000000

    
-------------------------------------------------------

  
  &error iter 38        
-------------------------------------------------------
  Energy   MaxStDev:          0.0000    
  Gradient MaxStDev:          0.0000    
  Nac      MaxStDev:          0.0000    
  Soc      MaxStDev:          0.0000    
-------------------------------------------------------

  Iter:       39  Ekin =           0.0949647624321341 au T =  1332.78 K dt =         20 CI:   2
  Root chosen for geometry opt   2

  Gnuplot:           0.0000001445290115           0.9999998554709890        -302.9206303525456860        -302.7786829655162819        -302.7786829655162819
  **
  **
  **
  A surface hopping is not allowed
  **
  At state:   2


  &surface hopping information
-------------------------------------------------------

    Random number:             0.02734078
    Accumulated probability:   0.00000002
    state mult  level   probability 
    1     1     1       0.00000002
    2     1     2       0.00000000

    
-------------------------------------------------------

  
  &error iter 39        
-------------------------------------------------------
  Energy   MaxStDev:          0.0000    
  Gradient MaxStDev:          0.0000    
  Nac      MaxStDev:          0.0000    
  Soc      MaxStDev:          0.0000    
-------------------------------------------------------

  Iter:       40  Ekin =           0.0901697422495903 au T =  1265.48 K dt =         20 CI:   2
  Root chosen for geometry opt   2

  Gnuplot:           0.0000000610870306           0.9999999389129712        -302.9152395490455660        -302.7738290935793088        -302.7738290935793088
  **
  **
  **
  A surface hopping is not allowed
  **
  At state:   2


  &surface hopping information
-------------------------------------------------------

    Random number:             0.52388066
    Accumulated probability:   0.00000000
    state mult  level   probability 
    1     1     1       0.00000000
    2     1     2       0.00000000

    
-------------------------------------------------------

  
  &error iter 40        
-------------------------------------------------------
  Energy   MaxStDev:          0.0000    
  Gradient MaxStDev:          0.0000    
  Nac      MaxStDev:          0.0000    
  Soc      MaxStDev:          0.0000    
-------------------------------------------------------

  Iter:       41  Ekin =           0.0815895087385112 au T =  1145.06 K dt =         20 CI:   2
  Root chosen for geometry opt   2

  Gnuplot:           0.0000000123509225           0.9999999876490779        -302.9063342931847842        -302.7651347615399118        -302.7651347615399118
  **
  **
  **
  A surface hopping is not allowed
  **
  At state:   2


  &surface hopping information
-------------------------------------------------------

    Random number:             0.83538866
    Accumulated probability:   0.00000000
    state mult  level   probability 
    1     1     1       0.00000000
    2     1     2       0.00000000

    
-------------------------------------------------------

  
  &error iter 41        
-------------------------------------------------------
  Energy   MaxStDev:          0.0000    
  Gradient MaxStDev:          0.0000    
  Nac      MaxStDev:          0.0000    
  Soc      MaxStDev:          0.0000    
-------------------------------------------------------

  Iter:       42  Ekin =           0.0709766544400575 au T =   996.12 K dt =         20 CI:   2
  Root chosen for geometry opt   2

  Gnuplot:           0.0000001458836883           0.9999998541163109        -302.8956282518576018        -302.7543264700767622        -302.7543264700767622
  **
  **
  **
  A surface hopping is not allowed
  **
  At state:   2


  &surface hopping information
-------------------------------------------------------

    Random number:             0.83534312
    Accumulated probability:   0.00000003
    state mult  level   probability 
    1     1     1       0.00000003
    2     1     2       0.00000000

    
-------------------------------------------------------

  
  &error iter 42        
-------------------------------------------------------
  Energy   MaxStDev:          0.0000    
  Gradient MaxStDev:          0.0000    
  Nac      MaxStDev:          0.0000    
  Soc      MaxStDev:          0.0000    
-------------------------------------------------------

  Iter:       43  Ekin =           0.0612597906833277 au T =   859.75 K dt =         20 CI:   2
  Root chosen for geometry opt   2

  Gnuplot:           0.0000002904931953           0.9999997095067954        -302.8858302756532908        -302.7443690180145381        -302.7443690180145381
  **
  **
  **
  A surface hopping is not allowed
  **
  At state:   2


  &surface hopping information
-------------------------------------------------------

    Random number:             0.31050873
    Accumulated probability:   0.00000004
    state mult  level   probability 
    1     1     1       0.00000004
    2     1     2       0.00000000

    
-------------------------------------------------------

  
  &error iter 43        
-------------------------------------------------------
  Energy   MaxStDev:          0.0000    
  Gradient MaxStDev:          0.0000    
  Nac      MaxStDev:          0.0000    
  Soc      MaxStDev:          0.0000    
-------------------------------------------------------

  Iter:       44  Ekin =           0.0559360048409435 au T =   785.03 K dt =         20 CI:   2
  Root chosen for geometry opt   2

  Gnuplot:           0.0000003097549583           0.9999996902450334        -302.8801614566986586        -302.7388776611607568        -302.7388776611607568
  **
  **
  **
  A surface hopping is not allowed
  **
  At state:   2


  &surface hopping information
-------------------------------------------------------

    Random number:             0.36726555
    Accumulated probability:   0.00000003
    state mult  level   probability 
    1     1     1       0.00000003
    2     1     2       0.00000000

    
-------------------------------------------------------

  
  &error iter 44        
-------------------------------------------------------
  Energy   MaxStDev:          0.0000    
  Gradient MaxStDev:          0.0000    
  Nac      MaxStDev:          0.0000    
  Soc      MaxStDev:          0.0000    
-------------------------------------------------------

  Iter:       45  Ekin =           0.0573464386248297 au T =   804.83 K dt =         20 CI:   2
  Root chosen for geometry opt   2

  Gnuplot:           0.0000002668986245           0.9999997331013617        -302.8808770382320290        -302.7403121294938160        -302.7403121294938160
  **
  **
  **
  A surface hopping is not allowed
  **
  At state:   2


  &surface hopping information
-------------------------------------------------------

    Random number:             0.49291372
    Accumulated probability:   0.00000003
    state mult  level   probability 
    1     1     1       0.00000003
    2     1     2       0.00000000

    
-------------------------------------------------------

  
  &error iter 45        
-------------------------------------------------------
  Energy   MaxStDev:          0.0000    
  Gradient MaxStDev:          0.0000    
  Nac      MaxStDev:          0.0000    
  Soc      MaxStDev:          0.0000    
-------------------------------------------------------

  Iter:       46  Ekin =           0.0651700311418119 au T =   914.63 K dt =         20 CI:   2
  Root chosen for geometry opt   2

  Gnuplot:           0.0000002233459684           0.9999997766540361        -302.8876988615963342        -302.7483072048534609        -302.7483072048534609
  **
  **
  **
  A surface hopping is not allowed
  **
  At state:   2


  &surface hopping information
-------------------------------------------------------

    Random number:             0.87132633
    Accumulated probability:   0.00000003
    state mult  level   probability 
    1     1     1       0.00000003
    2     1     2       0.00000000

    
-------------------------------------------------------

  
  &error iter 46        
-------------------------------------------------------
  Energy   MaxStDev:          0.0000    
  Gradient MaxStDev:          0.0000    
  Nac      MaxStDev:          0.0000    
  Soc      MaxStDev:          0.0000    
-------------------------------------------------------

  Iter:       47  Ekin =           0.0768016396733151 au T =  1077.87 K dt =         20 CI:   2
  Root chosen for geometry opt   2

  Gnuplot:           0.0000002564776957           0.9999997435222951        -302.8980898521115819        -302.7601590464361152        -302.7601590464361152
  **
  **
  **
  A surface hopping is not allowed
  **
  At state:   2


  &surface hopping information
-------------------------------------------------------

    Random number:             0.75112122
    Accumulated probability:   0.00000004
    state mult  level   probability 
    1     1     1       0.00000004
    2     1     2       0.00000000

    
-------------------------------------------------------

  
  &error iter 47        
-------------------------------------------------------
  Energy   MaxStDev:          0.0000    
  Gradient MaxStDev:          0.0000    
  Nac      MaxStDev:          0.0000    
  Soc      MaxStDev:          0.0000    
-------------------------------------------------------

  Iter:       48  Ekin =           0.0886879616358157 au T =  1244.69 K dt =         20 CI:   2
  Root chosen for geometry opt   2

  Gnuplot:           0.0000003932113333           0.9999996067886627        -302.9085951310159999        -302.7722894097246922        -302.7722894097246922
  **
  **
  **
  A surface hopping is not allowed
  **
  At state:   2


  &surface hopping information
-------------------------------------------------------

    Random number:             0.06073962
    Accumulated probability:   0.00000007
    state mult  level   probability 
    1     1     1       0.00000007
    2     1     2       0.00000000

    
-------------------------------------------------------

  
  &error iter 48        
-------------------------------------------------------
  Energy   MaxStDev:          0.0000    
  Gradient MaxStDev:          0.0000    
  Nac      MaxStDev:          0.0000    
  Soc      MaxStDev:          0.0000    
-------------------------------------------------------

  Iter:       49  Ekin =           0.0971673610270831 au T =  1363.69 K dt =         20 CI:   2
  Root chosen for geometry opt   2

  Gnuplot:           0.0000006392462521           0.9999993607537476        -302.9157635928621062        -302.7809803904281125        -302.7809803904281125
  **
  **
  **
  A surface hopping is not allowed
  **
  At state:   2


  &surface hopping information
-------------------------------------------------------

    Random number:             0.49868822
    Accumulated probability:   0.00000012
    state mult  level   probability 
    1     1     1       0.00000012
    2     1     2       0.00000000

    
-------------------------------------------------------

  
  &error iter 49        
-------------------------------------------------------
  Energy   MaxStDev:          0.0000    
  Gradient MaxStDev:          0.0000    
  Nac      MaxStDev:          0.0000    
  Soc      MaxStDev:          0.0000    
-------------------------------------------------------

  Iter:       50  Ekin =           0.0993140801281742 au T =  1393.82 K dt =         20 CI:   2
  Root chosen for geometry opt   2

  Gnuplot:           0.0000011600893997           0.9999988399106314        -302.9168230114904077        -302.7832215037024639        -302.7832215037024639
  **
  **
  **
  A surface hopping is not allowed
  **
  At state:   2


  &surface hopping information
-------------------------------------------------------

    Random number:             0.16322003
    Accumulated probability:   0.00000022
    state mult  level   probability 
    1     1     1       0.00000022
    2     1     2       0.00000000

    
-------------------------------------------------------

  
  &error iter 50        
-------------------------------------------------------
  Energy   MaxStDev:          0.0000    
  Gradient MaxStDev:          0.0000    
  Nac      MaxStDev:          0.0000    
  Soc      MaxStDev:          0.0000    
-------------------------------------------------------

  Iter:       51  Ekin =           0.0941304270375875 au T =  1321.07 K dt =         20 CI:   2
  Root chosen for geometry opt   2

  Gnuplot:           0.0000021187142194           0.9999978812857080        -302.9106909235163698        -302.7779392985279401        -302.7779392985279401
  **
  **
  **
  A surface hopping is not allowed
  **
  At state:   2


  &surface hopping information
-------------------------------------------------------

    Random number:             0.63735676
    Accumulated probability:   0.00000038
    state mult  level   probability 
    1     1     1       0.00000038
    2     1     2       0.00000000

    
-------------------------------------------------------

  
  &error iter 51        
-------------------------------------------------------
  Energy   MaxStDev:          0.0000    
  Gradient MaxStDev:          0.0000    
  Nac      MaxStDev:          0.0000    
  Soc      MaxStDev:          0.0000    
-------------------------------------------------------

  Iter:       52  Ekin =           0.0834832197275215 au T =  1171.64 K dt =         20 CI:   2
  Root chosen for geometry opt   2

  Gnuplot:           0.0000035681358947           0.9999964318640195        -302.8991615746709272        -302.7670015575908451        -302.7670015575908451
  **
  **
  **
  A surface hopping is not allowed
  **
  At state:   2


  &surface hopping information
-------------------------------------------------------

    Random number:             0.82653016
    Accumulated probability:   0.00000058
    state mult  level   probability 
    1     1     1       0.00000058
    2     1     2       0.00000000

    
-------------------------------------------------------

  
  &error iter 52        
-------------------------------------------------------
  Energy   MaxStDev:          0.0000    
  Gradient MaxStDev:          0.0000    
  Nac      MaxStDev:          0.0000    
  Soc      MaxStDev:          0.0000    
-------------------------------------------------------

  Iter:       53  Ekin =           0.0719510305180165 au T =  1009.79 K dt =         20 CI:   2
  Root chosen for geometry opt   2

  Gnuplot:           0.0000061207025382           0.9999938792975627        -302.8870158669665784        -302.7551065260099108        -302.7551065260099108
  **
  **
  **
  A surface hopping is not allowed
  **
  At state:   2


  &surface hopping information
-------------------------------------------------------

    Random number:             0.29489470
    Accumulated probability:   0.00000094
    state mult  level   probability 
    1     1     1       0.00000094
    2     1     2       0.00000000

    
-------------------------------------------------------

  
  &error iter 53        
-------------------------------------------------------
  Energy   MaxStDev:          0.0000    
  Gradient MaxStDev:          0.0000    
  Nac      MaxStDev:          0.0000    
  Soc      MaxStDev:          0.0000    
-------------------------------------------------------

  Iter:       54  Ekin =           0.0651104954701267 au T =   913.79 K dt =         20 CI:   2
  Root chosen for geometry opt   2

  Gnuplot:           0.0000105570664437           0.9999894429338383        -302.8799801263046447        -302.7480055072910545        -302.7480055072910545
  **
  **
  **
  A surface hopping is not allowed
  **
  At state:   2


  &surface hopping information
-------------------------------------------------------

    Random number:             0.39012530
    Accumulated probability:   0.00000154
    state mult  level   probability 
    1     1     1       0.00000154
    2     1     2       0.00000000

    
-------------------------------------------------------

  
  &error iter 54        
-------------------------------------------------------
  Energy   MaxStDev:          0.0000    
  Gradient MaxStDev:          0.0000    
  Nac      MaxStDev:          0.0000    
  Soc      MaxStDev:          0.0000    
-------------------------------------------------------

  Iter:       55  Ekin =           0.0666895935139051 au T =   935.95 K dt =         20 CI:   2
  Root chosen for geometry opt   2

  Gnuplot:           0.0000166879236200           0.9999833120764379        -302.8818236449680512        -302.7496382887628101        -302.7496382887628101
  **
  **
  **
  A surface hopping is not allowed
  **
  At state:   2


  &surface hopping information
-------------------------------------------------------

    Random number:             0.23563835
    Accumulated probability:   0.00000246
    state mult  level   probability 
    1     1     1       0.00000246
    2     1     2       0.00000000

    
-------------------------------------------------------

  
  &error iter 55        
-------------------------------------------------------
  Energy   MaxStDev:          0.0000    
  Gradient MaxStDev:          0.0000    
  Nac      MaxStDev:          0.0000    
  Soc      MaxStDev:          0.0000    
-------------------------------------------------------

  Iter:       56  Ekin =           0.0758577914023896 au T =  1064.62 K dt =         20 CI:   2
  Root chosen for geometry opt   2

  Gnuplot:           0.0000192556976924           0.9999807443018653        -302.8912439009009745        -302.7591742652405742        -302.7591742652405742
  **
  **
  **
  A surface hopping is not allowed
  **
  At state:   2


  &surface hopping information
-------------------------------------------------------

    Random number:             0.38442123
    Accumulated probability:   0.00000264
    state mult  level   probability 
    1     1     1       0.00000264
    2     1     2       0.00000000

    
-------------------------------------------------------

  
  &error iter 56        
-------------------------------------------------------
  Energy   MaxStDev:          0.0000    
  Gradient MaxStDev:          0.0000    
  Nac      MaxStDev:          0.0000    
  Soc      MaxStDev:          0.0000    
-------------------------------------------------------

  Iter:       57  Ekin =           0.0874460514484041 au T =  1227.26 K dt =         20 CI:   2
  Root chosen for geometry opt   2

  Gnuplot:           0.0000157756003969           0.9999842243996682        -302.9025196628713843        -302.7711724954544934        -302.7711724954544934
  **
  **
  **
  A surface hopping is not allowed
  **
  At state:   2


  &surface hopping information
-------------------------------------------------------

    Random number:             0.86853385
    Accumulated probability:   0.00000206
    state mult  level   probability 
    1     1     1       0.00000206
    2     1     2       0.00000000

    
-------------------------------------------------------

  
  &error iter 57        
-------------------------------------------------------
  Energy   MaxStDev:          0.0000    
  Gradient MaxStDev:          0.0000    
  Nac      MaxStDev:          0.0000    
  Soc      MaxStDev:          0.0000    
-------------------------------------------------------

  Iter:       58  Ekin =           0.0955198315567608 au T =  1340.57 K dt =         20 CI:   2
  Root chosen for geometry opt   2

  Gnuplot:           0.0000113707289763           0.9999886292707743        -302.9097844529107988        -302.7794432031471388        -302.7794432031471388
  **
  **
  **
  A surface hopping is not allowed
  **
  At state:   2


  &surface hopping information
-------------------------------------------------------

    Random number:             0.26602650
    Accumulated probability:   0.00000151
    state mult  level   probability 
    1     1     1       0.00000151
    2     1     2       0.00000000

    
-------------------------------------------------------

  
  &error iter 58        
-------------------------------------------------------
  Energy   MaxStDev:          0.0000    
  Gradient MaxStDev:          0.0000    
  Nac      MaxStDev:          0.0000    
  Soc      MaxStDev:          0.0000    
-------------------------------------------------------

  Iter:       59  Ekin =           0.0969288518511070 au T =  1360.34 K dt =         20 CI:   2
  Root chosen for geometry opt   2

  Gnuplot:           0.0000078365556892           0.9999921634444036        -302.9101905862542026        -302.7807658607139842        -302.7807658607139842
  **
  **
  **
  A surface hopping is not allowed
  **
  At state:   2


  &surface hopping information
-------------------------------------------------------

    Random number:             0.39126256
    Accumulated probability:   0.00000099
    state mult  level   probability 
    1     1     1       0.00000099
    2     1     2       0.00000000

    
-------------------------------------------------------

  
  &error iter 59        
-------------------------------------------------------
  Energy   MaxStDev:          0.0000    
  Gradient MaxStDev:          0.0000    
  Nac      MaxStDev:          0.0000    
  Soc      MaxStDev:          0.0000    
-------------------------------------------------------

  Iter:       60  Ekin =           0.0919740757368326 au T =  1290.81 K dt =         20 CI:   2
  Root chosen for geometry opt   2

  Gnuplot:           0.0000052985038320           0.9999947014962345        -302.9041805097518818        -302.7756762912172235        -302.7756762912172235
  **
  **
  **
  A surface hopping is not allowed
  **
  At state:   2


  &surface hopping information
-------------------------------------------------------

    Random number:             0.86737633
    Accumulated probability:   0.00000064
    state mult  level   probability 
    1     1     1       0.00000064
    2     1     2       0.00000000

    
-------------------------------------------------------

  
  &error iter 60        
-------------------------------------------------------
  Energy   MaxStDev:          0.0000    
  Gradient MaxStDev:          0.0000    
  Nac      MaxStDev:          0.0000    
  Soc      MaxStDev:          0.0000    
-------------------------------------------------------

  Iter:       61  Ekin =           0.0821719270933131 au T =  1153.24 K dt =         20 CI:   2
  Root chosen for geometry opt   2

  Gnuplot:           0.0000035249148724           0.9999964750850268        -302.8934792613040941        -302.7657950523333170        -302.7657950523333170
  **
  **
  **
  A surface hopping is not allowed
  **
  At state:   2


  &surface hopping information
-------------------------------------------------------

    Random number:             0.87273532
    Accumulated probability:   0.00000037
    state mult  level   probability 
    1     1     1       0.00000037
    2     1     2       0.00000000

    
-------------------------------------------------------

  
  &error iter 61        
-------------------------------------------------------
  Energy   MaxStDev:          0.0000    
  Gradient MaxStDev:          0.0000    
  Nac      MaxStDev:          0.0000    
  Soc      MaxStDev:          0.0000    
-------------------------------------------------------

  Iter:       62  Ekin =           0.0689650974938814 au T =   967.89 K dt =         20 CI:   2
  Root chosen for geometry opt   2

  Gnuplot:           0.0000023213972658           0.9999976786027673        -302.8798205008122295        -302.7524445960250432        -302.7524445960250432
  **
  **
  **
  A surface hopping is not allowed
  **
  At state:   2


  &surface hopping information
-------------------------------------------------------

    Random number:             0.11751797
    Accumulated probability:   0.00000021
    state mult  level   probability 
    1     1     1       0.00000021
    2     1     2       0.00000000

    
-------------------------------------------------------

  
  &error iter 62        
-------------------------------------------------------
  Energy   MaxStDev:          0.0000    
  Gradient MaxStDev:          0.0000    
  Nac      MaxStDev:          0.0000    
  Soc      MaxStDev:          0.0000    
-------------------------------------------------------

  Iter:       63  Ekin =           0.0546259351841613 au T =   766.64 K dt =         20 CI:   2
  Root chosen for geometry opt   2

  Gnuplot:           0.0000018338676154           0.9999981661324000        -302.8656071176803266        -302.7378732558296406        -302.7378732558296406
  **
  **
  **
  A surface hopping is not allowed
  **
  At state:   2


  &surface hopping information
-------------------------------------------------------

    Random number:             0.19332297
    Accumulated probability:   0.00000016
    state mult  level   probability 
    1     1     1       0.00000016
    2     1     2       0.00000000

    
-------------------------------------------------------

  
  &error iter 63        
-------------------------------------------------------
  Energy   MaxStDev:          0.0000    
  Gradient MaxStDev:          0.0000    
  Nac      MaxStDev:          0.0000    
  Soc      MaxStDev:          0.0000    
-------------------------------------------------------

  Iter:       64  Ekin =           0.0425854311266093 au T =   597.66 K dt =         20 CI:   2
  Root chosen for geometry opt   2

  Gnuplot:           0.0000017124905269           0.9999982875094702        -302.8542037168820684        -302.7255881991426918        -302.7255881991426918
  **
  **
  **
  A surface hopping is not allowed
  **
  At state:   2


  &surface hopping information
-------------------------------------------------------

    Random number:             0.74706012
    Accumulated probability:   0.00000013
    state mult  level   probability 
    1     1     1       0.00000013
    2     1     2       0.00000000

    
-------------------------------------------------------

  
  &error iter 64        
-------------------------------------------------------
  Energy   MaxStDev:          0.0000    
  Gradient MaxStDev:          0.0000    
  Nac      MaxStDev:          0.0000    
  Soc      MaxStDev:          0.0000    
-------------------------------------------------------

  Iter:       65  Ekin =           0.0364322008634588 au T =   511.31 K dt =         20 CI:   2
  Root chosen for geometry opt   2

  Gnuplot:           0.0000012166565438           0.9999987833434716        -302.8490592291251460        -302.7192808307815426        -302.7192808307815426
  **
  **
  **
  A surface hopping is not allowed
  **
  At state:   2


  &surface hopping information
-------------------------------------------------------

    Random number:             0.24655974
    Accumulated probability:   0.00000005
    state mult  level   probability 
    1     1     1       0.00000005
    2     1     2       0.00000000

    
-------------------------------------------------------

  
  &error iter 65        
-------------------------------------------------------
  Energy   MaxStDev:          0.0000    
  Gradient MaxStDev:          0.0000    
  Nac      MaxStDev:          0.0000    
  Soc      MaxStDev:          0.0000    
-------------------------------------------------------

  Iter:       66  Ekin =           0.0383392419902350 au T =   538.07 K dt =         20 CI:   2
  Root chosen for geometry opt   2

  Gnuplot:           0.0000004186604577           0.9999995813395515        -302.8521622915696980        -302.7212152449059204        -302.7212152449059204
  **
  **
  **
  A surface hopping is not allowed
  **
  At state:   2


  &surface hopping information
-------------------------------------------------------

    Random number:             0.21946178
    Accumulated probability:   0.00000000
    state mult  level   probability 
    1     1     1       0.00000000
    2     1     2       0.00000000

    
-------------------------------------------------------

  
  &error iter 66        
-------------------------------------------------------
  Energy   MaxStDev:          0.0000    
  Gradient MaxStDev:          0.0000    
  Nac      MaxStDev:          0.0000    
  Soc      MaxStDev:          0.0000    
-------------------------------------------------------

  Iter:       67  Ekin =           0.0478301575371713 au T =   671.27 K dt =         20 CI:   2
  Root chosen for geometry opt   2

  Gnuplot:           0.0000000384824365           0.9999999615175632        -302.8628997397729563        -302.7309118780212884        -302.7309118780212884
  **
  **
  **
  A surface hopping is not allowed
  **
  At state:   2


  &surface hopping information
-------------------------------------------------------

    Random number:             0.99920124
    Accumulated probability:   0.00000000
    state mult  level   probability 
    1     1     1       0.00000000
    2     1     2       0.00000000

    
-------------------------------------------------------

  
  &error iter 67        
-------------------------------------------------------
  Energy   MaxStDev:          0.0000    
  Gradient MaxStDev:          0.0000    
  Nac      MaxStDev:          0.0000    
  Soc      MaxStDev:          0.0000    
-------------------------------------------------------

  Iter:       68  Ekin =           0.0618657117836856 au T =   868.25 K dt =         20 CI:   2
  Root chosen for geometry opt   2

  Gnuplot:           0.0000000311698799           0.9999999688301209        -302.8782269017098656        -302.7452246370821740        -302.7452246370821740
  **
  **
  **
  A surface hopping is not allowed
  **
  At state:   2


  &surface hopping information
-------------------------------------------------------

    Random number:             0.73272729
    Accumulated probability:   0.00000001
    state mult  level   probability 
    1     1     1       0.00000001
    2     1     2       0.00000000

    
-------------------------------------------------------

  
  &error iter 68        
-------------------------------------------------------
  Energy   MaxStDev:          0.0000    
  Gradient MaxStDev:          0.0000    
  Nac      MaxStDev:          0.0000    
  Soc      MaxStDev:          0.0000    
-------------------------------------------------------

  Iter:       69  Ekin =           0.0763036941657970 au T =  1070.88 K dt =         20 CI:   2
  Root chosen for geometry opt   2

  Gnuplot:           0.0000000813148929           0.9999999186851056        -302.8940153743089923        -302.7598948696469279        -302.7598948696469279
  **
  **
  **
  A surface hopping is not allowed
  **
  At state:   2


  &surface hopping information
-------------------------------------------------------

    Random number:             0.93929583
    Accumulated probability:   0.00000001
    state mult  level   probability 
    1     1     1       0.00000001
    2     1     2       0.00000000

    
-------------------------------------------------------

  
  &error iter 69        
-------------------------------------------------------
  Energy   MaxStDev:          0.0000    
  Gradient MaxStDev:          0.0000    
  Nac      MaxStDev:          0.0000    
  Soc      MaxStDev:          0.0000    
-------------------------------------------------------

  Iter:       70  Ekin =           0.0874577057223309 au T =  1227.42 K dt =         20 CI:   2
  Root chosen for geometry opt   2

  Gnuplot:           0.0000001561660153           0.9999998438339901        -302.9064616212283454        -302.7712233309963494        -302.7712233309963494
  **
  **
  **
  A surface hopping is not allowed
  **
  At state:   2


  &surface hopping information
-------------------------------------------------------

    Random number:             0.88738877
    Accumulated probability:   0.00000003
    state mult  level   probability 
    1     1     1       0.00000003
    2     1     2       0.00000000

    
-------------------------------------------------------

  
  &error iter 70        
-------------------------------------------------------
  Energy   MaxStDev:          0.0000    
  Gradient MaxStDev:          0.0000    
  Nac      MaxStDev:          0.0000    
  Soc      MaxStDev:          0.0000    
-------------------------------------------------------

  Iter:       71  Ekin =           0.0926279470141241 au T =  1299.98 K dt =         20 CI:   2
  Root chosen for geometry opt   2

  Gnuplot:           0.0000004397581946           0.9999995602418039        -302.9128448052330214        -302.7765211765394042        -302.7765211765394042
  **
  **
  **
  A surface hopping is not allowed
  **
  At state:   2


  &surface hopping information
-------------------------------------------------------

    Random number:             0.21293491
    Accumulated probability:   0.00000009
    state mult  level   probability 
    1     1     1       0.00000009
    2     1     2       0.00000000

    
-------------------------------------------------------

  
  &error iter 71        
-------------------------------------------------------
  Energy   MaxStDev:          0.0000    
  Gradient MaxStDev:          0.0000    
  Nac      MaxStDev:          0.0000    
  Soc      MaxStDev:          0.0000    
-------------------------------------------------------

  Iter:       72  Ekin =           0.0903031364877220 au T =  1267.35 K dt =         20 CI:   2
  Root chosen for geometry opt   2

  Gnuplot:           0.0000010642202328           0.9999989357797858        -302.9117850463564423        -302.7741880995314432        -302.7741880995314432
  **
  **
  **
  A surface hopping is not allowed
  **
  At state:   2


  &surface hopping information
-------------------------------------------------------

    Random number:             0.67282635
    Accumulated probability:   0.00000021
    state mult  level   probability 
    1     1     1       0.00000021
    2     1     2       0.00000000

    
[...]
  **
  **
  **
  A surface hopping is not allowed
  **
  At state:   1


  &surface hopping information
-------------------------------------------------------

    Random number:             0.64501590
    Accumulated probability:   0.00003226
    state mult  level   probability 
    1     1     1       0.00000000
    2     1     2       0.00003226

    
-------------------------------------------------------

  
  &error iter 1981      
-------------------------------------------------------
  Energy   MaxStDev:          0.0000    
  Gradient MaxStDev:          0.0000    
  Nac      MaxStDev:          0.0000    
  Soc      MaxStDev:          0.0000    
-------------------------------------------------------

  Iter:     1982  Ekin =           0.1927227564542578 au T =  2704.76 K dt =         20 CI:   2
  Root chosen for geometry opt   1

  Gnuplot:           0.9999721315198258           0.0000278684808531        -302.8766458230806506        -302.6081274195344122        -302.8766458230806506
  **
  **
  **
  A surface hopping is not allowed
  **
  At state:   1


  &surface hopping information
-------------------------------------------------------

    Random number:             0.45798120
    Accumulated probability:   0.00001270
    state mult  level   probability 
    1     1     1       0.00000000
    2     1     2       0.00001270

    
-------------------------------------------------------

  
  &error iter 1982      
-------------------------------------------------------
  Energy   MaxStDev:          0.0000    
  Gradient MaxStDev:          0.0000    
  Nac      MaxStDev:          0.0000    
  Soc      MaxStDev:          0.0000    
-------------------------------------------------------

  Iter:     1983  Ekin =           0.1895651151199073 au T =  2660.44 K dt =         20 CI:   2
  Root chosen for geometry opt   1

  Gnuplot:           0.9999963108825796           0.0000036891174008        -302.8737494366856708        -302.6059051038204188        -302.8737494366856708
  **
  **
  **
  A surface hopping is not allowed
  **
  At state:   1


  &surface hopping information
-------------------------------------------------------

    Random number:             0.44864148
    Accumulated probability:   0.00000098
    state mult  level   probability 
    1     1     1       0.00000000
    2     1     2       0.00000098

    
-------------------------------------------------------

  
  &error iter 1983      
-------------------------------------------------------
  Energy   MaxStDev:          0.0000    
  Gradient MaxStDev:          0.0000    
  Nac      MaxStDev:          0.0000    
  Soc      MaxStDev:          0.0000    
-------------------------------------------------------

  Iter:     1984  Ekin =           0.1844102665277051 au T =  2588.10 K dt =         20 CI:   2
  Root chosen for geometry opt   1

  Gnuplot:           0.9999968979038840           0.0000031020962277        -302.8685693247597328        -302.6018363814765166        -302.8685693247597328
  **
  **
  **
  A surface hopping is not allowed
  **
  At state:   1


  &surface hopping information
-------------------------------------------------------

    Random number:             0.06647816
    Accumulated probability:   0.00000158
    state mult  level   probability 
    1     1     1       0.00000000
    2     1     2       0.00000158

    
-------------------------------------------------------

  
  &error iter 1984      
-------------------------------------------------------
  Energy   MaxStDev:          0.0000    
  Gradient MaxStDev:          0.0000    
  Nac      MaxStDev:          0.0000    
  Soc      MaxStDev:          0.0000    
-------------------------------------------------------

  Iter:     1985  Ekin =           0.1775153122102016 au T =  2491.33 K dt =         20 CI:   2
  Root chosen for geometry opt   1

  Gnuplot:           0.9999960633126648           0.0000039366872293        -302.8613892925924347        -302.5961032545989156        -302.8613892925924347
  **
  **
  **
  A surface hopping is not allowed
  **
  At state:   1


  &surface hopping information
-------------------------------------------------------

    Random number:             0.79867232
    Accumulated probability:   0.00000204
    state mult  level   probability 
    1     1     1       0.00000000
    2     1     2       0.00000204

    
-------------------------------------------------------

  
  &error iter 1985      
-------------------------------------------------------
  Energy   MaxStDev:          0.0000    
  Gradient MaxStDev:          0.0000    
  Nac      MaxStDev:          0.0000    
  Soc      MaxStDev:          0.0000    
-------------------------------------------------------

  Iter:     1986  Ekin =           0.1727190285494131 au T =  2424.02 K dt =         20 CI:   2
  Root chosen for geometry opt   1

  Gnuplot:           0.9999973231767854           0.0000026768231820        -302.8564189288584316        -302.5927552000380842        -302.8564189288584316
  **
  **
  **
  A surface hopping is not allowed
  **
  At state:   1


  &surface hopping information
-------------------------------------------------------

    Random number:             0.98079145
    Accumulated probability:   0.00000123
    state mult  level   probability 
    1     1     1       0.00000000
    2     1     2       0.00000123

    
-------------------------------------------------------

  
  &error iter 1986      
-------------------------------------------------------
  Energy   MaxStDev:          0.0000    
  Gradient MaxStDev:          0.0000    
  Nac      MaxStDev:          0.0000    
  Soc      MaxStDev:          0.0000    
-------------------------------------------------------

  Iter:     1987  Ekin =           0.1727103512554978 au T =  2423.89 K dt =         20 CI:   2
  Root chosen for geometry opt   1

  Gnuplot:           0.9999964233686569           0.0000035766312352        -302.8566183248984771        -302.5939911082867866        -302.8566183248984771
  **
  **
  **
  A surface hopping is not allowed
  **
  At state:   1


  &surface hopping information
-------------------------------------------------------

    Random number:             0.32165313
    Accumulated probability:   0.00000181
    state mult  level   probability 
    1     1     1       0.00000000
    2     1     2       0.00000181

    
-------------------------------------------------------

  
  &error iter 1987      
-------------------------------------------------------
  Energy   MaxStDev:          0.0000    
  Gradient MaxStDev:          0.0000    
  Nac      MaxStDev:          0.0000    
  Soc      MaxStDev:          0.0000    
-------------------------------------------------------

  Iter:     1988  Ekin =           0.1762892944688977 au T =  2474.12 K dt =         20 CI:   2
  Root chosen for geometry opt   1

  Gnuplot:           0.9999920488126008           0.0000079511872294        -302.8601530384126477        -302.5962067045227855        -302.8601530384126477
  **
  **
  **
  A surface hopping is not allowed
  **
  At state:   1


  &surface hopping information
-------------------------------------------------------

    Random number:             0.78811175
    Accumulated probability:   0.00000432
    state mult  level   probability 
    1     1     1       0.00000000
    2     1     2       0.00000432

    
-------------------------------------------------------

  
  &error iter 1988      
-------------------------------------------------------
  Energy   MaxStDev:          0.0000    
  Gradient MaxStDev:          0.0000    
  Nac      MaxStDev:          0.0000    
  Soc      MaxStDev:          0.0000    
-------------------------------------------------------

  Iter:     1989  Ekin =           0.1819516319014563 au T =  2553.59 K dt =         20 CI:   2
  Root chosen for geometry opt   1

  Gnuplot:           0.9999832420871826           0.0000167579128325        -302.8659975786284235        -302.5966645815677225        -302.8659975786284235
  **
  **
  **
  A surface hopping is not allowed
  **
  At state:   1


  &surface hopping information
-------------------------------------------------------

    Random number:             0.90338302
    Accumulated probability:   0.00000942
    state mult  level   probability 
    1     1     1       0.00000000
    2     1     2       0.00000942

    
-------------------------------------------------------

  
  &error iter 1989      
-------------------------------------------------------
  Energy   MaxStDev:          0.0000    
  Gradient MaxStDev:          0.0000    
  Nac      MaxStDev:          0.0000    
  Soc      MaxStDev:          0.0000    
-------------------------------------------------------

  Iter:     1990  Ekin =           0.1876733432823421 au T =  2633.89 K dt =         20 CI:   2
  Root chosen for geometry opt   1

  Gnuplot:           0.9999886287432673           0.0000113712567628        -302.8718247392986882        -302.5980716233669909        -302.8718247392986882
  **
  **
  **
  A surface hopping is not allowed
  **
  At state:   1


  &surface hopping information
-------------------------------------------------------

    Random number:             0.69175953
    Accumulated probability:   0.00000575
    state mult  level   probability 
    1     1     1       0.00000000
    2     1     2       0.00000575

    
-------------------------------------------------------

  
  &error iter 1990      
-------------------------------------------------------
  Energy   MaxStDev:          0.0000    
  Gradient MaxStDev:          0.0000    
  Nac      MaxStDev:          0.0000    
  Soc      MaxStDev:          0.0000    
-------------------------------------------------------

  Iter:     1991  Ekin =           0.1916732564783815 au T =  2690.03 K dt =         20 CI:   2
  Root chosen for geometry opt   1

  Gnuplot:           0.9999959341798785           0.0000040658202855        -302.8757919583242710        -302.6006295115067815        -302.8757919583242710
  **
  **
  **
  A surface hopping is not allowed
  **
  At state:   1


  &surface hopping information
-------------------------------------------------------

    Random number:             0.03988383
    Accumulated probability:   0.00000181
    state mult  level   probability 
    1     1     1       0.00000000
    2     1     2       0.00000181

    
-------------------------------------------------------

  
  &error iter 1991      
-------------------------------------------------------
  Energy   MaxStDev:          0.0000    
  Gradient MaxStDev:          0.0000    
  Nac      MaxStDev:          0.0000    
  Soc      MaxStDev:          0.0000    
-------------------------------------------------------

  Iter:     1992  Ekin =           0.1939444327051139 au T =  2721.90 K dt =         20 CI:   2
  Root chosen for geometry opt   1

  Gnuplot:           0.9999972931514094           0.0000027068486501        -302.8780281793019071        -302.6029303240305808        -302.8780281793019071
  **
  **
  **
  A surface hopping is not allowed
  **
  At state:   1


  &surface hopping information
-------------------------------------------------------

    Random number:             0.53074545
    Accumulated probability:   0.00000140
    state mult  level   probability 
    1     1     1       0.00000000
    2     1     2       0.00000140

    
-------------------------------------------------------

  
  &error iter 1992      
-------------------------------------------------------
  Energy   MaxStDev:          0.0000    
  Gradient MaxStDev:          0.0000    
  Nac      MaxStDev:          0.0000    
  Soc      MaxStDev:          0.0000    
-------------------------------------------------------

  Iter:     1993  Ekin =           0.1947499803854046 au T =  2733.21 K dt =         20 CI:   2
  Root chosen for geometry opt   1

  Gnuplot:           0.9999976990366122           0.0000023009634607        -302.8788289752417882        -302.6050824660939043        -302.8788289752417882
  **
  **
  **
  A surface hopping is not allowed
  **
  At state:   1


  &surface hopping information
-------------------------------------------------------

    Random number:             0.43270925
    Accumulated probability:   0.00000123
    state mult  level   probability 
    1     1     1       0.00000000
    2     1     2       0.00000123

    
-------------------------------------------------------

  
  &error iter 1993      
-------------------------------------------------------
  Energy   MaxStDev:          0.0000    
  Gradient MaxStDev:          0.0000    
  Nac      MaxStDev:          0.0000    
  Soc      MaxStDev:          0.0000    
-------------------------------------------------------

  Iter:     1994  Ekin =           0.1940656391991048 au T =  2723.60 K dt =         20 CI:   2
  Root chosen for geometry opt   1

  Gnuplot:           0.9999987115227214           0.0000012884773115        -302.8781262806379573        -302.6073398005411264        -302.8781262806379573
  **
  **
  **
  A surface hopping is not allowed
  **
  At state:   1


  &surface hopping information
-------------------------------------------------------

    Random number:             0.41259766
    Accumulated probability:   0.00000063
    state mult  level   probability 
    1     1     1       0.00000000
    2     1     2       0.00000063

    
-------------------------------------------------------

  
  &error iter 1994      
-------------------------------------------------------
  Energy   MaxStDev:          0.0000    
  Gradient MaxStDev:          0.0000    
  Nac      MaxStDev:          0.0000    
  Soc      MaxStDev:          0.0000    
-------------------------------------------------------

  Iter:     1995  Ekin =           0.1923464130986261 au T =  2699.48 K dt =         20 CI:   2
  Root chosen for geometry opt   1

  Gnuplot:           0.9999985941599334           0.0000014058400233        -302.8762688866934241        -302.6097272459159626        -302.8762688866934241
  **
  **
  **
  A surface hopping is not allowed
  **
  At state:   1


  &surface hopping information
-------------------------------------------------------

    Random number:             0.93951470
    Accumulated probability:   0.00000075
    state mult  level   probability 
    1     1     1       0.00000000
    2     1     2       0.00000075

    
-------------------------------------------------------

  
  &error iter 1995      
-------------------------------------------------------
  Energy   MaxStDev:          0.0000    
  Gradient MaxStDev:          0.0000    
  Nac      MaxStDev:          0.0000    
  Soc      MaxStDev:          0.0000    
-------------------------------------------------------

  Iter:     1996  Ekin =           0.1917001273778370 au T =  2690.41 K dt =         20 CI:   2
  Root chosen for geometry opt   1

  Gnuplot:           0.9999959492688504           0.0000040507311974        -302.8753979752578971        -302.6120364812011303        -302.8753979752578971
  **
  **
  **
  A surface hopping is not allowed
  **
  At state:   1


  &surface hopping information
-------------------------------------------------------

    Random number:             0.79703617
    Accumulated probability:   0.00000233
    state mult  level   probability 
    1     1     1       0.00000000
    2     1     2       0.00000233

    
-------------------------------------------------------

  
  &error iter 1996      
-------------------------------------------------------
  Energy   MaxStDev:          0.0000    
  Gradient MaxStDev:          0.0000    
  Nac      MaxStDev:          0.0000    
  Soc      MaxStDev:          0.0000    
-------------------------------------------------------

  Iter:     1997  Ekin =           0.1951433496417053 au T =  2738.73 K dt =         20 CI:   2
  Root chosen for geometry opt   1

  Gnuplot:           0.9999932433684080           0.0000067566315072        -302.8787248563691605        -302.6146640271307433        -302.8787248563691605
  **
  **
  **
  A surface hopping is not allowed
  **
  At state:   1


  &surface hopping information
-------------------------------------------------------

    Random number:             0.37998524
    Accumulated probability:   0.00000374
    state mult  level   probability 
    1     1     1       0.00000000
    2     1     2       0.00000374

    
-------------------------------------------------------

  
  &error iter 1997      
-------------------------------------------------------
  Energy   MaxStDev:          0.0000    
  Gradient MaxStDev:          0.0000    
  Nac      MaxStDev:          0.0000    
  Soc      MaxStDev:          0.0000    
-------------------------------------------------------

  Iter:     1998  Ekin =           0.2043684199761219 au T =  2868.20 K dt =         20 CI:   2
  Root chosen for geometry opt   1

  Gnuplot:           0.9999901462033449           0.0000098537966434        -302.8880078266773808        -302.6188626479251980        -302.8880078266773808
  **
  **
  **
  A surface hopping is not allowed
  **
  At state:   1


  &surface hopping information
-------------------------------------------------------

    Random number:             0.30053672
    Accumulated probability:   0.00000563
    state mult  level   probability 
    1     1     1       0.00000000
    2     1     2       0.00000563

    
-------------------------------------------------------

  
  &error iter 1998      
-------------------------------------------------------
  Energy   MaxStDev:          0.0000    
  Gradient MaxStDev:          0.0000    
  Nac      MaxStDev:          0.0000    
  Soc      MaxStDev:          0.0000    
-------------------------------------------------------

  Iter:     1999  Ekin =           0.2184629353771821 au T =  3066.01 K dt =         20 CI:   2
  Root chosen for geometry opt   1

  Gnuplot:           0.9999924034150354           0.0000075965849274        -302.9023183695196053        -302.6256145490288532        -302.9023183695196053
  **
  **
  **
  A surface hopping is not allowed
  **
  At state:   1


  &surface hopping information
-------------------------------------------------------

    Random number:             0.23205863
    Accumulated probability:   0.00000429
    state mult  level   probability 
    1     1     1       0.00000000
    2     1     2       0.00000429

    
-------------------------------------------------------

  
  &error iter 1999      
-------------------------------------------------------
  Energy   MaxStDev:          0.0000    
  Gradient MaxStDev:          0.0000    
  Nac      MaxStDev:          0.0000    
  Soc      MaxStDev:          0.0000    
-------------------------------------------------------

  Iter:     2000  Ekin =           0.2344841587834083 au T =  3290.86 K dt =         20 CI:   2
  Root chosen for geometry opt   1

  Gnuplot:           0.9999996550446042           0.0000003449553867        -302.9185698934232391        -302.6340787188973422        -302.9185698934232391
  **
  **
  **
  A surface hopping is not allowed
  **
  At state:   1


  &surface hopping information
-------------------------------------------------------

    Random number:             0.02354602
    Accumulated probability:   0.00000003
    state mult  level   probability 
    1     1     1       0.00000000
    2     1     2       0.00000003

    
-------------------------------------------------------

  
  &error iter 2000      
-------------------------------------------------------
  Energy   MaxStDev:          0.0000    
  Gradient MaxStDev:          0.0000    
  Nac      MaxStDev:          0.0000    
  Soc      MaxStDev:          0.0000    
-------------------------------------------------------


Nonadiabatic Molecular Dynamics End:  2026-02-25 10:53:46 Total:     0 days     0 hours     6 minutes    50 seconds
